# ODT 1.0
# Table Start
## mmGraph output
# Columns:  {Oxs_TimeDriver::Simulation time} Oxs_TimeDriver::mx  Oxs_TimeDriver::my  Oxs_TimeDriver::mz 
# Units:                    s           {}                  {}                  {}         
            0                   0.8544569061075226 -0.3498003874109925 -6.098657824952811e-10
            1e-12               0.854345421708301  -0.3498773512084598 -0.001164927545260955
            2e-12               0.8543014919911013 -0.3498057670824039 -0.002329596510575224
            3e-12               0.8543251565933824 -0.349585946609904  -0.00349227349211774
            4e-12               0.8544162766004253 -0.3492184121464076 -0.004651153083741465
            5e-12               0.8545745325076416 -0.3487038740246727 -0.005804443017503083
            5.999999999999999e-12  0.8547994297959814 -0.3480432238423692 -0.006950342041041235
            6.999999999999999e-12  0.8550903026735635 -0.3472375179864326 -0.008087065612521593
            8e-12               0.8554463151561934 -0.3462879837285869 -0.009212838595054987
            9e-12               0.8558664629094059 -0.3451960235463469 -0.01032590053274956
            9.999999999999999e-12  0.8563495771601519 -0.343963216020666  -0.01142451210749823
            1.1e-11             0.8568943303393756 -0.3425913152499863 -0.01250695993948679
            1.2e-11             0.857499244128096  -0.3410822462313524 -0.01357156361010546
            1.3e-11             0.8581626967524633 -0.3394381050714535 -0.01461667926321904
            1.4e-11             0.8588829294203907 -0.3376611627283946 -0.01564070274558817
            1.5e-11             0.8596580559542387 -0.3357538596747643 -0.01664207816140076
            1.6e-11             0.8604860712218253 -0.3337188047253175 -0.01761930193197447
            1.7e-11             0.8613648595644318 -0.331558773563383  -0.01857092619111303
            1.8e-11             0.8622922026616395 -0.3292767095183974 -0.01949556138845177
            1.9e-11             0.8632657917921374 -0.3268757123411243 -0.02039188363618268
            2e-11               0.8642832354875752 -0.3243590413151101 -0.02125863624983976
            2.1e-11             0.865342072783573  -0.3217301020551309 -0.02209463633436165
            2.2e-11             0.8664397814046624 -0.3189924468262281 -0.0228987757962321
            2.3e-11             0.8675737855084161 -0.3161497741255467 -0.02367002273635257
            2.4e-11             0.8687414672535189 -0.3132059162996191 -0.02440742544230997
            2.5e-11             0.8699401787750433 -0.3101648260281565 -0.02511011554686075
            2.6e-11             0.8711672496315103 -0.3070305759539577 -0.0257773083418437
            2.7e-11             0.8724199949394226 -0.3038073559585945 -0.02640830375659939
            2.8e-11             0.8736957280952441 -0.3004994554806098 -0.02700248853196571
            2.9e-11             0.8749917669822228 -0.297111262067053  -0.02755933541114509
            3e-11               0.876305445375124  -0.2936472428610181 -0.02807840380509742
            3.1e-11             0.8776341174685018 -0.2901119456493963 -0.02855933857429139
            3.200000000000001e-11  0.8789751660056849 -0.2865099895353289 -0.02900186983726945
            3.3e-11             0.8803260129318508 -0.2828460474129089 -0.02940581223750277
            3.400000000000001e-11  0.8816841252171244 -0.2791248408305467 -0.0297710630102271
            3.500000000000001e-11  0.8830470199395304 -0.2753511347544365 -0.03009760012504877
            3.600000000000001e-11  0.8844122730047833 -0.2715297195718112 -0.03038548002742721
            3.700000000000001e-11  0.8857775213871507 -0.2676654126014766 -0.03063483535218097
            3.800000000000002e-11  0.8871404707541458 -0.2637630419393727 -0.03084587198539868
            3.900000000000002e-11  0.8884988989672202 -0.259827441993457  -0.03101886634049536
            4.000000000000002e-11  0.8898506631663733 -0.2558634367340006 -0.03115416182551098
            4.100000000000003e-11  0.8911937010283133 -0.2518758413797765 -0.03125216639074468
            4.200000000000003e-11  0.8925260357433663 -0.2478694497552044 -0.03131334866403664
            4.300000000000003e-11  0.8938457777718136 -0.2438490297841521 -0.03133823466545592
            4.400000000000004e-11  0.8951511275021558 -0.2398193160774465 -0.03132740450176424
            4.500000000000004e-11  0.8964403802686755 -0.2357849956996052 -0.03128148777812822
            4.600000000000004e-11  0.8977119285847363 -0.2317507027466562 -0.03120115948488641
            4.700000000000004e-11  0.8989642637333588 -0.2277210119557119 -0.03108713589946396
            4.800000000000005e-11  0.9001959725847833 -0.2237004497409834 -0.03094017411447738
            4.900000000000005e-11  0.9014057463905226 -0.2196934579471195 -0.0307610633572154
            5.000000000000005e-11  0.9025923753086215 -0.2157044130964592 -0.03055062553184123
            5.100000000000006e-11  0.9037547249472956 -0.2117377327931813 -0.03030973610091196
            5.200000000000006e-11  0.9048918196477214 -0.2077975088036071 -0.03003924364116211
            5.300000000000006e-11  0.9060027563433812 -0.2038878773327711 -0.02974004271848223
            5.400000000000007e-11  0.9070867326641294 -0.2000128970409911 -0.02941304796993226
            5.500000000000007e-11  0.9081430590674092 -0.1961764801857445 -0.02905917495408934
            5.600000000000007e-11  0.9091711372654876 -0.192382494718524  -0.02867936308059233
            5.700000000000007e-11  0.9101704769807183 -0.1886346738196824 -0.0282745511065704
            5.800000000000007e-11  0.9111406854444845 -0.1849366675678179 -0.02784568875042746
            5.900000000000007e-11  0.9120814717418984 -0.1812920165281175 -0.02739372816138621
            6.000000000000006e-11  0.9129926453038391 -0.1777041535853198 -0.02691962268695421
            6.100000000000006e-11  0.9138741146085678 -0.1741763998976416 -0.02642432355101871
            6.200000000000006e-11  0.9147258823316649 -0.170711985862151  -0.02590878401219173
            6.300000000000005e-11  0.9155480448045816 -0.1673140416297233 -0.02537395365050557
            6.400000000000005e-11  0.9163407911320474 -0.1639855790979885 -0.02482076947806794
            6.500000000000005e-11  0.9171043989383006 -0.160729499742315  -0.02425015736365256
            6.600000000000004e-11  0.9178392318077238 -0.157548586693391  -0.02366303083376333
            6.700000000000004e-11  0.9185457358559437 -0.1544455028515975 -0.02306029424409347
            6.800000000000004e-11  0.9192244361904045 -0.1514227902657364 -0.02244284704969041
            6.900000000000003e-11  0.9198759337130201 -0.148482874177325  -0.02181158795700778
            7.000000000000003e-11  0.9205009021860728 -0.1456280700748565 -0.02116741612262834
            7.100000000000003e-11  0.9211000852160102 -0.1428605749277959 -0.02051121993042892
            7.200000000000002e-11  0.9216742927208729 -0.1401825080459591 -0.01984388609921077
            7.300000000000002e-11  0.9222244002144332 -0.1375959282334928 -0.01916629983174399
            7.400000000000002e-11  0.9227513419333233 -0.1351027576265823 -0.01847930104389238
            7.500000000000001e-11  0.9232561074136414 -0.1327048143990425 -0.01778369982299529
            7.600000000000001e-11  0.9237397374415229 -0.1304037948702824 -0.01708027402553323
            7.700000000000001e-11  0.9242033206332975 -0.1282012712016109 -0.01636977868004256
            7.8e-11             0.9246479884509434 -0.126098689002411  -0.01565295541789965
            7.9e-11             0.9250749081295971 -0.1240973721132402 -0.01493054157657297
            8e-11               0.9254852750552079 -0.1221985354479984 -0.01420327804104633
            8.099999999999999e-11  0.9258803013698302 -0.1204032936499507 -0.01347190854834478
            8.199999999999999e-11  0.926261205626234  -0.1187126715971124 -0.01273717887060482
            8.299999999999998e-11  0.9266291990358252 -0.1171276025123803 -0.01199982770720527
            8.399999999999998e-11  0.9269854770539163 -0.1156489299775626 -0.01126058601014274
            8.499999999999998e-11  0.9273312097749247 -0.1142774037617651 -0.01052017277445517
            8.599999999999997e-11  0.927667536674464  -0.1130136821521505 -0.00977929853037254
            8.699999999999997e-11  0.9279955585230322 -0.1118583311437483 -0.009038659460348696
            8.799999999999997e-11  0.9283163326785938 -0.1108118296595768 -0.008298936131969237
            8.899999999999996e-11  0.9286308672299121 -0.1098745707584417 -0.007560785986696883
            8.999999999999996e-11  0.9289401158823853 -0.1090468599175904 -0.006824842938997225
            9.099999999999996e-11  0.9292449687488368 -0.1083289091868625 -0.006091704142507766
            9.199999999999995e-11  0.9295462512125815 -0.1077208285626116 -0.005361946222317703
            9.299999999999995e-11  0.9298447141709999 -0.1072226229052753 -0.004636112589726865
            9.399999999999995e-11  0.9301410314954138 -0.1068341907424096 -0.003914721993900082
            9.499999999999994e-11  0.9304357965347098 -0.1065553245694185 -0.003198269671045119
            9.599999999999994e-11  0.9307295192616344 -0.1063857132032722 -0.002487225015277892
            9.699999999999994e-11  0.931022622181489  -0.1063249406106284 -0.001782031218254589
            9.799999999999993e-11  0.9313154365265723 -0.1063724812719251 -0.001083106915515341
            9.899999999999993e-11  0.9316081966477607 -0.1065276990654288 -0.0003908485278664666
            9.999999999999993e-11  0.9319010357780823 -0.1067898443904109  0.0002943643924307923
            1.009999999999999e-10  0.9321939820701235 -0.107158056946897   0.0009721661317495312
            1.019999999999999e-10  0.9324869567220023 -0.1076313741268397  0.001642204741138403
            1.029999999999999e-10  0.9327797730667786 -0.1082087298114665  0.002304141305987852
            1.039999999999999e-10  0.9330721362365312 -0.1088889602989469  0.002957652027861521
            1.049999999999999e-10  0.9333636437441994 -0.1096708041151114  0.003602427550032787
            1.059999999999999e-10  0.9336537845139097 -0.1105529008906417  0.004238170182239101
            1.069999999999999e-10  0.933941939964002  -0.1115337943920544  0.004864590867302962
            1.079999999999999e-10  0.9342273867887306 -0.1126119437783085  0.005481408263319019
            1.089999999999999e-10  0.9345092969193919 -0.1137857151759454  0.006088347206113032
            1.099999999999999e-10  0.9347867421951923 -0.1150533859355829  0.006685141397823032
            1.109999999999999e-10  0.9350587017298622 -0.1164131551710147  0.007271537306620213
            1.119999999999999e-10  0.9353240710966981 -0.1178631511562229  0.007847295697387348
            1.129999999999999e-10  0.9355816641376713 -0.1194014182989305  0.008412188471444577
            1.139999999999999e-10  0.9358302208991239 -0.1210259252888431  0.008965996952576693
            1.149999999999999e-10  0.9360684135659482 -0.122734567292913   0.009508510653099048
            1.159999999999999e-10  0.9362948535501538 -0.1245251701636935  0.01003952879406004
            1.169999999999999e-10  0.9365081042536189 -0.1263955032264224  0.01055886409607724
            1.179999999999999e-10  0.9367066859989485 -0.1283432675878303  0.011066344300098 
            1.189999999999999e-10  0.936889090802919  -0.130366107682005   0.01156181335007381
            1.199999999999999e-10  0.9370537890529212 -0.132461603680079   0.01204512860794779
            1.209999999999999e-10  0.9371992402032128 -0.1346272790632715  0.01251615821563511
            1.219999999999999e-10  0.9373239029593876 -0.1368606062399427  0.01297477975863662
            1.229999999999999e-10  0.9374262427775548 -0.1391590087377599  0.01342088106236936
            1.239999999999999e-10  0.9375047439842422 -0.1415198661839089  0.01385436199964757
            1.249999999999999e-10  0.9375579210046692 -0.1439405217039242  0.01427513505148408
            1.259999999999998e-10  0.9375843267132064 -0.1464182767620568  0.01468312290700037
            1.269999999999998e-10  0.9375825592452161 -0.1489503842318423  0.01507825402589261
            1.279999999999998e-10  0.9375512768566358 -0.1515340842555417  0.01546045934959666
            1.289999999999998e-10  0.9374891975425678 -0.1541665797512143  0.01582967018955257
            1.299999999999998e-10  0.9373951088628888 -0.1568450575547493  0.01618582015113567
            1.309999999999998e-10  0.93726787448156   -0.1595666838339048  0.01652884823907443
            1.319999999999998e-10  0.9371064430985948 -0.1623286116077963  0.0168587013908993
            1.329999999999998e-10  0.9369098527727145 -0.1651279762690729  0.01717533342192461
            1.339999999999998e-10  0.936677233901013  -0.167961883313626   0.01747870023792283
            1.349999999999998e-10  0.9364078138327989 -0.1708274380680387  0.01776875440162036
            1.359999999999998e-10  0.936100911719402  -0.1737217096142967  0.01804543928402323
            1.369999999999998e-10  0.9357559415309196 -0.1766417766009707  0.01830868529860314
            1.379999999999998e-10  0.9353724070746176 -0.1795847151591445  0.01855840566754994
            1.389999999999998e-10  0.9349499008137029 -0.1825476037107516  0.01879449398768254
            1.399999999999998e-10  0.9344881018016984 -0.1855275314544896  0.01901682423643595
            1.409999999999998e-10  0.9339867749649129 -0.1885216044256711  0.01922525284017442
            1.419999999999998e-10  0.9334457689296979 -0.1915269422827272  0.01941962254734653
            1.429999999999998e-10  0.932865016207206  -0.1945406768603805  0.01959976908157267
            1.439999999999998e-10  0.9322445327305942 -0.1975599420600527  0.01976552743552691
            1.449999999999998e-10  0.9315844162567305 -0.2005818706981966  0.01991673393229912
            1.459999999999998e-10  0.9308848445077907 -0.2036035791446398  0.02005322010737709
            1.469999999999998e-10  0.9301460696956775 -0.20662217515207    0.02017480241665232
            1.479999999999998e-10  0.9293684129633111 -0.2096347587274922  0.02028127089091772
            1.489999999999998e-10  0.9285522582006821 -0.2126384316223237  0.02037238202136898
            1.499999999999998e-10  0.9276980478432554 -0.215630307126698   0.02044785811975483
            1.509999999999998e-10  0.9268062815142639 -0.218607516935747   0.02050739297316017
            1.519999999999998e-10  0.9258775191888126 -0.2215672021550487  0.02055065932580805
            1.529999999999998e-10  0.9249123833537877 -0.2245065143578634  0.0205773156995473
            1.539999999999998e-10  0.9239115618565273 -0.2274226068508566  0.02058700757745678
            1.549999999999997e-10  0.9228758079894761 -0.2303126332654531  0.0205793658900958
            1.559999999999997e-10  0.9218059366253528 -0.233173755969847   0.02055400609432781
            1.569999999999997e-10  0.9207028207740315 -0.2360031499407233  0.02051052861060318
            1.579999999999997e-10  0.9195673797673947 -0.2387980322969119  0.02044852550796139
            1.589999999999997e-10  0.9184005883109754 -0.2415556361198695  0.02036758455393303
            1.599999999999997e-10  0.9172034762719294 -0.2442732196805021  0.02026729958149857
            1.609999999999997e-10  0.9159771284929197 -0.2469480747055538  0.020147279480827 
            1.619999999999997e-10  0.914722686579339  -0.2495775268708631  0.02000715287544191
            1.629999999999997e-10  0.9134413734852941 -0.2521588928550936  0.01984656690909208
            1.639999999999997e-10  0.9121344850925567 -0.254689508924015   0.01966519065241802
            1.649999999999997e-10  0.9108033936222412 -0.2571667309681721  0.01946271376004469
            1.659999999999997e-10  0.9094495481606374 -0.2595879415115124  0.01923884660218044
            1.669999999999997e-10  0.9080744872994736 -0.2619505397407776  0.01899332303421085
            1.679999999999997e-10  0.9066798050126772 -0.2642520049136327  0.01872590764625214
            1.689999999999997e-10  0.9052671848222328 -0.2664898501544984  0.0184363998048648
            1.699999999999997e-10  0.9038383974097042 -0.2686616373538973  0.01812464023588161
            1.709999999999997e-10  0.9023952964519588 -0.2707649913099652  0.01779051417202912
            1.719999999999997e-10  0.9009398222721344 -0.2727976014351106  0.01743395028149804
            1.729999999999997e-10  0.8994740010343346 -0.274757230103743   0.01705491773034954
            1.739999999999997e-10  0.8979999378615435 -0.2766417286683896  0.01665342491756233
            1.749999999999997e-10  0.8965198110899001 -0.2784490518060594  0.01622952262378432
            1.759999999999997e-10  0.8950358351872457 -0.280177296898641   0.015783305692327 
            1.769999999999997e-10  0.8935503254147652 -0.2818246468794735  0.01531493110806515
            1.779999999999997e-10  0.8920656465377451 -0.2833894202524345  0.0148246192147226
            1.789999999999997e-10  0.890584188808169  -0.2848700836677109  0.01431264927987739
            1.799999999999997e-10  0.8891084142828306 -0.2862652137284973  0.01377936673406337
            1.809999999999997e-10  0.887640806274147  -0.2875735333550697  0.01322517051980002
            1.819999999999997e-10  0.8861839041575617 -0.2887938915631184  0.01265052469353511
            1.829999999999997e-10  0.8847402596212863 -0.2899252928060128  0.01205595460344384
            1.839999999999996e-10  0.8833124377041875 -0.2909668932166501  0.01144205576540787
            1.849999999999996e-10  0.8819030098354235 -0.2919179982433541  0.01080949949722039
            1.859999999999996e-10  0.8805145526606667 -0.2927780569849279  0.01015903540131406
            1.869999999999996e-10  0.8791496475986188 -0.2935466573780729  0.009491489386637365
            1.879999999999996e-10  0.8778108559332568 -0.2942235307514631  0.008807750361881705
            1.889999999999996e-10  0.8765007394842066 -0.2948085472721567  0.008108779164528042
            1.899999999999996e-10  0.8752218271375175 -0.2953017278949907  0.007395597490950496
            1.909999999999996e-10  0.8739766097403179 -0.2957032451686263  0.006669290815626918
            1.919999999999996e-10  0.8727675314629489 -0.2960134213584237  0.005931008795051923
            1.929999999999996e-10  0.871596980223434  -0.2962327245238274  0.00518196122296872
            1.939999999999996e-10  0.8704672864235784 -0.2963617619728923  0.004423412392559663
            1.949999999999996e-10  0.8693807187916252 -0.2964012767629093  0.003656673559270812
            1.959999999999996e-10  0.8683394732198879 -0.2963521460086259  0.002883092694754949
            1.969999999999996e-10  0.8673456649653987 -0.2962153814306964  0.002104047941767344
            1.979999999999996e-10  0.8664013136636628 -0.2959921275613036  0.001320939714748107
            1.989999999999996e-10  0.8655083411276624 -0.2956836605310929  0.0005351932325778308
            1.999999999999996e-10  0.8646685497732274 -0.2952913760059094 -0.0002517573134994005
            2.009999999999996e-10  0.8638836346245059 -0.2948167912421895 -0.001038455464476374
            2.019999999999996e-10  0.8631551696758499 -0.2942615325446982 -0.001823437128902332
            2.029999999999996e-10  0.862484596444259  -0.2936273217382346 -0.002605240788503063
            2.039999999999996e-10  0.8618732257830467 -0.2929159742764806 -0.003382406385301334
            2.049999999999996e-10  0.8613222299003235 -0.2921293925886129 -0.004153481269437583
            2.059999999999996e-10  0.860832632628864  -0.2912695511377058 -0.004917031155711081
            2.069999999999996e-10  0.860405311143506  -0.2903384969432278 -0.005671638673200136
            2.079999999999996e-10  0.8600409887762064 -0.2893383332013919 -0.006415916392857499
            2.089999999999996e-10  0.8597402397984282 -0.2882712184039884 -0.00714850907271644
            2.099999999999996e-10  0.8595034860305445 -0.2871393574344461 -0.007868101075235556
            2.109999999999996e-10  0.8593309964197421 -0.285945000426678  -0.00857341905525494
            2.119999999999996e-10  0.8592228852204067 -0.2846904359661911 -0.009263235939513134
            2.129999999999995e-10  0.8591791081134937 -0.2833779875873374 -0.009936369832372798
            2.139999999999995e-10  0.8591994627585835 -0.2820100103617344 -0.01059168160445539
            2.149999999999995e-10  0.8592835870502091 -0.2805888840099483 -0.01122807449456916
            2.159999999999995e-10  0.8594309673620921 -0.2791169969211814 -0.01184450015581167
            2.169999999999995e-10  0.8596409437226091 -0.2775967382827397 -0.01243996316887185
            2.179999999999995e-10  0.8599127167823546 -0.2760304925642997 -0.01301352904428344
            2.189999999999995e-10  0.8602453547667592 -0.2744206351991396 -0.01356433323385799
            2.199999999999995e-10  0.8606377965166716 -0.2727695327893225 -0.01409158754486063
            2.209999999999995e-10  0.8610888595350877 -0.2710795379837243 -0.0145945840190173
            2.219999999999995e-10  0.8615972325760116 -0.2693530142854276 -0.01507268813582432
            2.229999999999995e-10  0.8621614854039729 -0.2675923262082645 -0.01552533931433158
            2.239999999999995e-10  0.862780078964891  -0.2657998298771764 -0.01595204808342046
            2.249999999999995e-10  0.8634513717454542 -0.2639778731535873 -0.01635239241612996
            2.259999999999995e-10  0.8641736335974657 -0.2621287838993321 -0.0167260177102651
            2.269999999999995e-10  0.8649450406219289 -0.2602548893867709 -0.0170726344251668
            2.279999999999995e-10  0.8657636907746636 -0.2583584987621231 -0.01739202074947255
            2.289999999999995e-10  0.8666276092462166 -0.2564419049424627 -0.01768402230864793
            2.299999999999995e-10  0.8675347574748373 -0.2545073808113948 -0.01794855170795744
            2.309999999999995e-10  0.8684830343475536 -0.2525571885369995 -0.01818558678487854
            2.319999999999995e-10  0.8694702766738071 -0.2505935877756523 -0.01839517018715566
            2.329999999999995e-10  0.8704942892741928 -0.2486187960705054 -0.01857740755320592
            2.339999999999995e-10  0.8715528350206403 -0.2466350144205719 -0.01873246603144897
            2.349999999999995e-10  0.8726436306125271 -0.2446444415203007 -0.0188605751203937
            2.359999999999995e-10  0.8737643642266356 -0.2426492561185933 -0.0189620257687231
            2.369999999999995e-10  0.8749127075658768 -0.2406516118917481 -0.01903716897387967
            2.379999999999995e-10  0.8760863170263757 -0.2386536472112347 -0.01908641573742057
            2.389999999999995e-10  0.8772828418459551 -0.2366574865274628 -0.01911023546288912
            2.399999999999995e-10  0.8784999359202537 -0.2346652325144128 -0.01910915184814749
            2.409999999999995e-10  0.8797352597251864 -0.2326789708817778 -0.01908374023419572
            2.419999999999995e-10  0.8809864968739229 -0.2307007538392127 -0.01903461864989075
            2.429999999999995e-10  0.8822513398052479 -0.2287326257720464 -0.01896245226668147
            2.439999999999995e-10  0.8835275143166348 -0.2267765960171235 -0.01886794454771894
            2.449999999999995e-10  0.8848127864255173 -0.2248346351217375 -0.01875183449716839
            2.459999999999995e-10  0.8861049633516581 -0.2229086814437804 -0.01861489822754763
            2.469999999999995e-10  0.8874019053852026 -0.2210006311216868 -0.01845794459209015
            2.479999999999995e-10  0.8887015246855289 -0.2191123408983596 -0.01828181548613613
            2.489999999999995e-10  0.8900018010734203 -0.2172456096344538 -0.01808737512976839
            2.499999999999994e-10  0.8913007770663931 -0.2154021846812118 -0.01787551055487498
            2.509999999999994e-10  0.89259655746457   -0.2135837639238132 -0.01764713172285001
            2.519999999999994e-10  0.8938873174596262 -0.21179198730268   -0.0174031663797997
            2.529999999999994e-10  0.8951713129011365 -0.2100284245250185 -0.01714455143012965
            2.539999999999994e-10  0.8964468739163977 -0.2082945898101473 -0.0168722397987057
            2.549999999999994e-10  0.8977124129990748 -0.2065919304531598 -0.01658719183631989
            2.559999999999994e-10  0.8989664280024114 -0.2049218255709487 -0.01629037077294972
            2.569999999999994e-10  0.9002075000843625 -0.2032855889166367 -0.01598274093361386
            2.579999999999994e-10  0.9014342975241043 -0.2016844626616312 -0.01566525824874302
            2.589999999999994e-10  0.9026455738687917 -0.200119622049022  -0.01533886947803287
            2.599999999999994e-10  0.9038401707081244 -0.1985921712949554 -0.01500450549011357
            2.609999999999994e-10  0.9050170204132345 -0.1971031422623393 -0.01466307683345113
            2.619999999999994e-10  0.9061751452973388 -0.1956534935636945 -0.01431547088607916
            2.629999999999994e-10  0.9073136600565591 -0.1942441067591361 -0.01396254638221244
            2.639999999999994e-10  0.9084317682818988 -0.1928757871443744 -0.01360513366421133
            2.649999999999994e-10  0.9095287610304752 -0.19154926042864   -0.01324402928771004
            2.659999999999994e-10  0.9106040135664617 -0.1902651730392904 -0.0128799954189175
            2.669999999999994e-10  0.9116569819656354 -0.1890240905720322 -0.01251375938069544
            2.679999999999994e-10  0.9126872008898912 -0.1878264953254153 -0.01214601348158675
            2.689999999999994e-10  0.9136942805081257 -0.1866727841000721 -0.01177741344703786
            2.699999999999994e-10  0.9146779017226881 -0.1855632674588311 -0.01140858203236991
            2.709999999999994e-10  0.9156378121024977 -0.1844981677549354 -0.01104010921741861
            2.719999999999994e-10  0.9165738198840391 -0.1834776177310312 -0.0106725535926381
            2.729999999999994e-10  0.9174857887038214 -0.1825016597006046 -0.0103064438522025
            2.739999999999994e-10  0.9183736321172739 -0.181570243766453  -0.009942281936604359
            2.749999999999994e-10  0.9192373095454612 -0.1806832253844393 -0.009580545345379719
            2.759999999999994e-10  0.920076820782451  -0.1798403646661334 -0.009221690800548148
            2.769999999999994e-10  0.9208922013719335 -0.1790413275913003 -0.008866158835699843
            2.779999999999994e-10  0.9216835180354228 -0.1782856894152544 -0.00851437728665555
            2.789999999999993e-10  0.9224508640154331 -0.1775729390739576 -0.008166763283452104
            2.799999999999993e-10  0.9231943558982265 -0.1769024862680066 -0.00782372332644031
            2.809999999999993e-10  0.9239141315019259 -0.1762736669935734 -0.007485652788784414
            2.819999999999993e-10  0.9246103499316397 -0.1756857463760463 -0.007152933728277197
            2.829999999999993e-10  0.9252831918325226 -0.175137923859414  -0.006825931421470111
            2.839999999999993e-10  0.925932860370708  -0.1746293328861984 -0.006504993602139872
            2.849999999999993e-10  0.9265595827837483 -0.1741590433862391 -0.006190448503890397
            2.859999999999993e-10  0.9271636113727127 -0.1737260636558076 -0.005882603532873144
            2.869999999999993e-10  0.9277452243734872 -0.1733293438029856 -0.005581745811753555
            2.879999999999993e-10  0.9283047262145965 -0.1729677804072207 -0.005288144641373229
            2.889999999999993e-10  0.9288424481793029 -0.1726402225337356 -0.005002053720258258
            2.899999999999993e-10  0.9293587485502529 -0.1723454817470124 -0.004723712355167312
            2.909999999999993e-10  0.9298540131116647 -0.1720823386452795 -0.004453346578551065
            2.919999999999993e-10  0.9303286562210037 -0.1718495539647765 -0.004191167286592069
            2.929999999999993e-10  0.9307831223135171 -0.1716458742052526 -0.003937366229283322
            2.939999999999993e-10  0.9312178875886087 -0.1714700404375173 -0.003692110687419538
            2.949999999999993e-10  0.9316334613099445 -0.1713207894545033 -0.003455540233557648
            2.959999999999993e-10  0.9320303860961116 -0.1711968573294188 -0.003227764838459025
            2.969999999999993e-10  0.9324092363856703 -0.171096973193277  -0.003008865000575289
            2.979999999999993e-10  0.9327706155740247 -0.1710198708270668 -0.002798892553870249
            2.989999999999993e-10  0.9331151510951849 -0.170964285964448  -0.002597872340025929
            2.999999999999993e-10  0.9334434891767825 -0.1709289683396808 -0.002405802763046839
            3.009999999999993e-10  0.9337562889935925 -0.1709126843654848 -0.002222655809767657
            3.019999999999993e-10  0.9340542174235283 -0.1709142214581148 -0.002048377027661825
            3.029999999999993e-10  0.9343379440227163 -0.1709323877878142 -0.001882885854637008
            3.039999999999993e-10  0.9346081356510431 -0.1709660134430916 -0.001726076635744276
            3.049999999999993e-10  0.9348654516595556 -0.1710139519494175 -0.001577819804633907
            3.059999999999993e-10  0.9351105371819229 -0.1710750775170252 -0.001437961620883553
            3.069999999999993e-10  0.9353440165632978 -0.1711482918185847 -0.001306323706092091
            3.079999999999992e-10  0.9355664855525859 -0.1712325243302243 -0.001182700598274589
            3.089999999999992e-10  0.9357785037141674 -0.1713267457740097 -0.00106685918473526
            3.099999999999992e-10  0.9359805865462827 -0.1714299620373503 -0.0009585337606381084
            3.109999999999992e-10  0.9361731973411214 -0.1715412194540393 -0.0008574225843168049
            3.119999999999992e-10  0.9363567416541135 -0.171659613978923  -0.0007631864151349942