# ODT 1.0
# Table Start
## mmGraph output
# Columns:  {Oxs_TimeDriver::Simulation time} Oxs_TimeDriver::mx  Oxs_TimeDriver::my  Oxs_TimeDriver::mz 
# Units:                    s           {}                  {}                  {}         
            1e-12               0.958125220097837  -0.2052156810224363 -1.425772497113861e-05
            2e-12               0.9577089458623711 -0.2062461202061395 -3.442903961501007e-05
            3.000000000000001e-12  0.9572904581469451 -0.2072777100700422 -6.059182318556183e-05
            4.000000000000001e-12  0.9568702372902346 -0.2083098684897927 -9.281472568399062e-05
            5.000000000000001e-12  0.9564487776958915 -0.2093419951911943 -0.0001311577107165607
            6e-12               0.9560265859578596 -0.2103734734810589 -0.0001756720160009256
            7e-12               0.9556041790512776 -0.2114036715548316 -0.0002264001268986428
            8e-12               0.9551820824905505 -0.212431943681151  -0.0002833757638437216
            9e-12               0.9547608285292765 -0.213457631272554  -0.0003466239155640968
            9.999999999999999e-12  0.9543409543650782 -0.2144800638624367 -0.0004161609025068748
            1.1e-11             0.9539230003534239 -0.2154985600631896 -0.000491994489458136
            1.2e-11             0.9535075082421066 -0.2165124284443982 -0.0005741240247640256
            1.3e-11             0.9530950194526798 -0.2175209684039626 -0.0006625406065925508
            1.4e-11             0.9526860734121072 -0.2185234709917013 -0.0007572272832029948
            1.5e-11             0.9522812059043596 -0.2195192196966257 -0.0008581592731144258
            1.6e-11             0.9518809475140784 -0.2205074912248343 -0.0009653041969700895
            1.7e-11             0.9514858222172962 -0.2214875561911409 -0.001078622326137893
            1.8e-11             0.9510963458423787 -0.2224586797795915 -0.001198066935504689
            1.9e-11             0.9507130242511398 -0.2234201226493808 -0.001323584604560624
            2e-11               0.9503363525129679 -0.2243711417542041 -0.001455115177998104
            2.1e-11             0.9499668147372464 -0.2253109904583087 -0.00159259200121488
            2.2e-11             0.9496048825583436 -0.2262389188846811 -0.001735942634548912
            2.3e-11             0.9492510132233479 -0.2271541747902897 -0.001885089341843584
            2.4e-11             0.9489056480390339 -0.2280560045488278 -0.002039949380046942
            2.5e-11             0.9485692114850774 -0.2289436541161714 -0.002200435019654279
            2.6e-11             0.9482421109629746 -0.2298163696909699 -0.002366453508861129
            2.7e-11             0.9479247368229451 -0.2306733981925099 -0.00253790706020793
            2.8e-11             0.9476174624515494 -0.2315139875559876 -0.002714692969647599
            2.9e-11             0.9473206442019122 -0.2323373870254586 -0.002896703853920964
            3e-11               0.9470346211300055 -0.2331428474844199 -0.003083828008832219
            3.1e-11             0.9467597145412158 -0.2339296219333607 -0.003275949827910881
            3.200000000000001e-11  0.9464962274611395 -0.2346969659844938 -0.003472950246528861
            3.300000000000001e-11  0.9462444441237335 -0.2354441384486531 -0.003674707017739416
            3.400000000000001e-11  0.9460046292836959 -0.2361704027194242 -0.003881095046604742
            3.500000000000001e-11  0.9457770276708418 -0.236875027915627  -0.004091987161531733
            3.600000000000001e-11  0.9455618645682378 -0.2375572871827069 -0.004307253910922879
            3.700000000000001e-11  0.9453593459504893 -0.2382164587725826 -0.004526762058378951
            3.800000000000002e-11  0.9451696565764129 -0.2388518333941635 -0.004750375818825064
            3.900000000000002e-11  0.944992960190958  -0.2394627137903788 -0.004977959305815469
            4.000000000000002e-11  0.9448294025905987 -0.2400484071855083 -0.005209374748050757
            4.100000000000003e-11  0.9446791126165384 -0.2406082255644907 -0.00544447970714637
            4.200000000000002e-11  0.9445422016576208 -0.2411414911087042 -0.005683126510231877
            4.300000000000003e-11  0.9444187625575082 -0.2416475429483725 -0.005925163355600446
            4.400000000000003e-11  0.9443088692629749 -0.2421257399001836 -0.006170436322115827
            4.500000000000003e-11  0.944212578120913  -0.2425754577359245 -0.006418790378619489
            4.600000000000004e-11  0.9441299301233225 -0.2429960845706833 -0.006670069080446751
            4.700000000000004e-11  0.9440609533944005 -0.2433870168667201 -0.006924112654189771
            4.800000000000004e-11  0.9440056644795169 -0.2437476594564641 -0.007180755967402347
            4.900000000000004e-11  0.9439640685932914 -0.2440774286506255 -0.00743982735299897
            5.000000000000005e-11  0.9439361589135736 -0.2443757577594465 -0.007701148926376714
            5.100000000000005e-11  0.9439219157375349 -0.2446421021504648 -0.007964537976905536
            5.200000000000005e-11  0.9439213056445782 -0.2448759430435522 -0.008229808903535822
            5.300000000000006e-11  0.9439342814227935 -0.2450767884396776 -0.008496774814990163
            5.400000000000006e-11  0.9439607826548743 -0.2452441715170387 -0.008765249003774343
            5.500000000000006e-11  0.9440007365125698 -0.2453776474505583 -0.009035046162989585
            5.600000000000007e-11  0.9440540587557648 -0.2454767904840635 -0.009305982117492529
            5.700000000000007e-11  0.944120655666847  -0.2455411904686233 -0.009577872389634222
            5.800000000000007e-11  0.9442004254582625 -0.245570450331704  -0.0098505311429045
            5.900000000000007e-11  0.9442932584924059 -0.2455641859476166 -0.01012377027557407
            6.000000000000006e-11  0.944399036447171  -0.245522028232488  -0.01039739863020172
            6.100000000000006e-11  0.944517631533093  -0.2454436266206405 -0.01067122147102368
            6.200000000000006e-11  0.9446489059009971 -0.2453286526477259 -0.01094504046401192
            6.300000000000005e-11  0.9447927110302214 -0.2451768031485551 -0.01121865464465409
            6.400000000000005e-11  0.9449488867922716 -0.2449878032688639 -0.0114918622899534
            6.500000000000005e-11  0.9451172603119499 -0.2447614090973023 -0.01176446332844663
            6.600000000000004e-11  0.9452976450597996 -0.2444974096656763 -0.0120362615017325
            6.700000000000004e-11  0.9454898405915133 -0.244195627742282  -0.01230706575941048
            6.800000000000004e-11  0.9456936328829284 -0.2438559195633549 -0.01257669076579224
            6.900000000000003e-11  0.9459087953451498 -0.2434781730894345 -0.01284495677742597
            7.000000000000003e-11  0.9461350904915204 -0.2430623043565806 -0.01311168933599292
            7.100000000000003e-11  0.9463722710240753 -0.2426082545474299 -0.01337671918744801
            7.200000000000002e-11  0.9466200801997017 -0.2421159890733222 -0.01363988220479785
            7.300000000000002e-11  0.946878253734852  -0.2415854935413399 -0.01390101862732621
            7.400000000000002e-11  0.9471465217805459 -0.2410167684565783 -0.01415997216866734
            7.500000000000001e-11  0.9474246081522145 -0.2404098310499688 -0.01441658914853754
            7.600000000000001e-11  0.9477122298343872 -0.2397647186623852 -0.01467071669764902
            7.700000000000001e-11  0.9480090987714147 -0.2390814868933683 -0.01492220048522386
            7.8e-11             0.9483149236919373 -0.2383602068718549 -0.01517088293496297
            7.9e-11             0.9486294108541298 -0.2376009650963366 -0.0154166023243715
            8e-11               0.9489522630108123 -0.236803868024322  -0.01565919257903731
            8.099999999999999e-11  0.9492831782686388 -0.2359690480581723 -0.01589848333369668
            8.199999999999999e-11  0.9496218502000864 -0.2350966663899212 -0.01613430026620251
            8.299999999999998e-11  0.9499679687463047 -0.2341869129760264 -0.0163664656627949
            8.399999999999998e-11  0.9503212209639019 -0.2332400055537642 -0.01659479964915905
            8.499999999999998e-11  0.9506812906019509 -0.2322561914962669 -0.01681912200336898
            8.599999999999997e-11  0.951047856654474  -0.2312357525767337 -0.01703925385766462
            8.699999999999997e-11  0.9514205921053347 -0.2301790113211366 -0.01725501895410183
            8.799999999999997e-11  0.9517991631114976 -0.2290863358582045 -0.0174662444351487
            8.899999999999996e-11  0.9521832296103544 -0.227958141403043  -0.0176727610360839
            8.999999999999996e-11  0.9525724477057378 -0.226794887970845  -0.01787440306005676
            9.099999999999996e-11  0.9529664717712493 -0.2255970760058655 -0.01807100910103809
            9.199999999999995e-11  0.9533649562612284 -0.2243652436191337 -0.01826242280173822
            9.299999999999995e-11  0.9537675571638609 -0.2230999654752596 -0.01844849264101287
            9.399999999999995e-11  0.9541739329948199 -0.2218018532335029 -0.01862907151140958
            9.499999999999994e-11  0.9545837450755644 -0.2204715570946177 -0.01880401674352687
            9.599999999999994e-11  0.9549966577313255 -0.2191097673586029 -0.01897319018055543
            9.699999999999994e-11  0.9554123391960616 -0.2177172141794521 -0.01913645794981766
            9.799999999999993e-11  0.9558304633572421 -0.2162946645243821 -0.01929368976508433
            9.899999999999993e-11  0.9562507124994239 -0.2148429166681486 -0.01944475846611063
            9.999999999999993e-11  0.956672779995135  -0.2133627942268561 -0.01958953990938345
            1.009999999999999e-10  0.957096372075351  -0.2118551413325827 -0.01972791297504085
            1.019999999999999e-10  0.9575212087342923 -0.2103208203996775 -0.0198597592174721
            1.029999999999999e-10  0.9579470240625161 -0.2087607117394857 -0.01998496185779118
            1.039999999999999e-10  0.9583735663293794 -0.2071757144439758 -0.02010340430315459
            1.049999999999999e-10  0.9588005978314171 -0.2055667484790014 -0.02021496869903264
            1.059999999999999e-10  0.9592278948272821 -0.2039347566275581 -0.02031953517725862
            1.069999999999999e-10  0.9596552481301784 -0.2022807038516029 -0.02041698154231203
            1.079999999999999e-10  0.9600824637148184 -0.2006055764390371 -0.02050718288592854
            1.089999999999999e-10  0.9605093630730455 -0.1989103826210596 -0.02059001144300638
            1.099999999999999e-10  0.9609357845203949 -0.1971961494056761 -0.02066533667836207
            1.109999999999999e-10  0.9613615852066303 -0.1954639155390673 -0.02073302488499158
            1.119999999999999e-10  0.9617866420157932 -0.1937147278677559 -0.02079293895058966
            1.129999999999999e-10  0.9622108513077774 -0.1919496412922978 -0.0208449395834299
            1.139999999999999e-10  0.9626341284256628 -0.1901697185267657 -0.02088888730979532
            1.149999999999999e-10  0.963056406842751  -0.1883760288573915 -0.02092464446419885
            1.159999999999999e-10  0.9634776370591157 -0.1865696478966743 -0.02095207664702765
            1.169999999999999e-10  0.9638977843076895 -0.1847516614342724 -0.02097105369750681
            1.179999999999999e-10  0.9643168257347889 -0.1829231721213041 -0.02098145088772706
            1.189999999999999e-10  0.9647347481271349 -0.1810853046341957 -0.02098315024457228
            1.199999999999999e-10  0.9651515467024304 -0.1792392068019039 -0.02097604184019592
            1.209999999999999e-10  0.9655672247121438 -0.1773860471682522 -0.02096002480574939
            1.219999999999999e-10  0.9659817929520633 -0.1755270124227699 -0.02093500811055664
            1.229999999999999e-10  0.9663952687707589 -0.1736633064250313 -0.0209009118794932
            1.239999999999999e-10  0.9668076747315956 -0.1717961504796466 -0.02085766951786911
            1.249999999999999e-10  0.9672190373131797 -0.1699267828193939 -0.02080522989765688
            1.259999999999998e-10  0.9676293860973361 -0.1680564550911828 -0.02074355859859987
            1.269999999999998e-10  0.9680387531938895 -0.1661864265476981 -0.02067263856747222
            1.279999999999998e-10  0.9684471722721257 -0.1643179587706265 -0.0205924701499406
            1.289999999999998e-10  0.9688546770554584 -0.1624523131980912 -0.02050307017666476
            1.299999999999998e-10  0.9692612995690776 -0.1605907513874437 -0.02040447089443  
            1.309999999999998e-10  0.9696670682026604 -0.1587345372366875 -0.02029671962024607
            1.319999999999998e-10  0.9700720057532692 -0.1568849393521398 -0.02017987915291086
            1.329999999999998e-10  0.9704761277644922 -0.1550432321201086 -0.02005402823576178
            1.339999999999998e-10  0.970879441270435  -0.1532106946786153 -0.01991926144937309
            1.349999999999998e-10  0.9712819441939587 -0.1513886084594343 -0.0197756885379434
            1.359999999999998e-10  0.9716836247811076 -0.1495782550341937 -0.01962343362675161
            1.369999999999998e-10  0.9720844610020543 -0.1477809156574087 -0.01946263450768278
            1.379999999999998e-10  0.9724844194190385 -0.1459978725517012 -0.0192934419182838
            1.389999999999998e-10  0.9728834540065328 -0.1442304106837954 -0.01911601862435329
            1.399999999999998e-10  0.9732815054036044 -0.1424798178406583 -0.0189305388488227
            1.409999999999998e-10  0.9736785011663848 -0.1407473812853419 -0.01873718820655074
            1.419999999999998e-10  0.9740743559364692 -0.1390343815575299 -0.01853616365534972
            1.429999999999998e-10  0.9744689725289375 -0.1373420852938021 -0.01832767367730298
            1.439999999999998e-10  0.9748622435886767 -0.1356717369254126 -0.01811193891520757
            1.449999999999998e-10  0.9752540519438635 -0.1340245503405736 -0.0178891917897631
            1.459999999999998e-10  0.9756442718999032 -0.132401704766182  -0.01765967492318853
            1.469999999999998e-10  0.9760327685853386 -0.1308043433396097 -0.01742364040744429
            1.479999999999998e-10  0.97641939857375   -0.1292335719668382 -0.01718135039547699
            1.489999999999998e-10  0.9768040096720512 -0.1276904584296333 -0.01693307759969977
            1.499999999999998e-10  0.9771864405838284 -0.1261760330912988 -0.01667910503751881
            1.509999999999998e-10  0.9775665205835931 -0.1246912901932636 -0.01641972523329261
            1.519999999999998e-10  0.9779440698329251 -0.1232371878184834 -0.01615523955548922
            1.529999999999998e-10  0.9783188999468928 -0.1218146450265307 -0.01588595734660796
            1.539999999999998e-10  0.9786908153724492 -0.1204245384229058 -0.01561219387734018
            1.549999999999997e-10  0.9790596140802434 -0.1190677007253608 -0.01533426731614999
            1.559999999999997e-10  0.9794250880288236 -0.1177449220553018 -0.01505249598815797
            1.569999999999997e-10  0.9797870234991369 -0.1164569527511176 -0.01476719709997641
            1.579999999999997e-10  0.9801452016683044 -0.1152045057853991 -0.01447868666007181
            1.589999999999997e-10  0.9804993991787659 -0.1139882582899028 -0.01418727935793331
            1.599999999999997e-10  0.9808493884211616 -0.1128088529540531 -0.01389328797838947
            1.609999999999997e-10  0.9811949375856933 -0.1116668997397264 -0.01359702257784037
            1.619999999999997e-10  0.9815358108630249 -0.1105629768006429 -0.0132987902190986
            1.629999999999997e-10  0.9818717693942824 -0.1094976285215219 -0.01299889620425156
            1.639999999999997e-10  0.9822025731590679 -0.1084713604423395 -0.01269764662423393
            1.649999999999997e-10  0.9825279825588807 -0.107484631990681  -0.01239535054671351
            1.659999999999997e-10  0.9828477595837191 -0.1065378491545115 -0.01209232061963655
            1.669999999999997e-10  0.9831616692061466 -0.1056313591129053 -0.01178887227810245
            1.679999999999997e-10  0.9834694799577414 -0.1047654474316889 -0.01148532242526703
            1.689999999999997e-10  0.9837709643453062 -0.1039403372626743 -0.01118198841263809
            1.699999999999997e-10  0.984065899246102  -0.1031561888852576 -0.01087918743821214
            1.709999999999997e-10  0.9843540665084289 -0.1024130983438667 -0.01057723607275335
            1.719999999999997e-10  0.9846352540191646 -0.1017110953700433 -0.01027644957333032
            1.729999999999997e-10  0.9849092562347598 -0.1010501419148693 -0.009977140833900246
            1.739999999999997e-10  0.9851758736960229 -0.1004301322323531 -0.009679619079306286
            1.749999999999997e-10  0.9854349140308162 -0.09985089467206155 -0.009384188432244856
            1.759999999999997e-10  0.9856861919331367 -0.09931219388768527 -0.009091146931058657
            1.769999999999997e-10  0.9859295297442081 -0.09881373251377719 -0.008800786687128834
            1.779999999999997e-10  0.9861647583869558 -0.09835515069570797 -0.008513394606319917
            1.789999999999997e-10  0.986391718098954  -0.09793602397328462 -0.008229252482041977
            1.799999999999997e-10  0.9866102601659504 -0.09755586244324259 -0.007948636355283992
            1.809999999999997e-10  0.9868202456538261 -0.09721411114828309 -0.007671814937353177
            1.819999999999997e-10  0.9870215468008697 -0.0969101518800812 -0.007399046619120493
            1.829999999999997e-10  0.987214046160645  -0.09664330729597644 -0.007130576163780654
            1.839999999999996e-10  0.9873976363356836 -0.09641284842116386 -0.006866633254963637
            1.849999999999996e-10  0.9875722195250644 -0.09621800288314433 -0.006607433160768992
            1.859999999999996e-10  0.9877377071758577 -0.09605796172157438 -0.006353178240984018
            1.869999999999996e-10  0.9878940198115398 -0.09593188442483798 -0.006104059073538393
            1.879999999999996e-10  0.988041086978188  -0.09583890345151311 -0.005860254962934673
            1.889999999999996e-10  0.9881788467911622 -0.09577812888584158 -0.005621934209543535
            1.899999999999996e-10  0.9883072454224687 -0.09574865233944459 -0.005389254038145961
            1.909999999999996e-10  0.9884262367624119 -0.0957495496786288 -0.005162359879544798
            1.919999999999996e-10  0.9885357821066447 -0.09577988328004806 -0.00494138438010041
            1.929999999999996e-10  0.9886358498201687 -0.09583870463804101 -0.004726447104134986
            1.939999999999996e-10  0.9887264152541325 -0.09592505704678592 -0.004517655639244817
            1.949999999999996e-10  0.9888074607975286 -0.09603797623559086 -0.004315107785216129
            1.959999999999996e-10  0.9888789764301332 -0.09617648767616084 -0.004118893846987152
            1.969999999999996e-10  0.9889409606073    -0.09633960146140544 -0.003929098105219241
            1.979999999999996e-10  0.9889934210402538 -0.09652630715425115 -0.003745799002602138
            1.989999999999996e-10  0.9890363751471917 -0.09673557077261516 -0.003569068519300157
            1.999999999999996e-10  0.9890698500602152 -0.09696633457404175 -0.00339897131816767
            2.009999999999996e-10  0.9890938822546026 -0.09721751899158257 -0.003235563561334407
            2.019999999999996e-10  0.9891085171013083 -0.09748802544952016 -0.003078891033578948
            2.029999999999996e-10  0.9891138084857873 -0.09777673952028097 -0.002928986758531856
            2.039999999999996e-10  0.9891098184718633 -0.09808253474120292 -0.002785868982535096
            2.049999999999996e-10  0.9890966169946326 -0.09840427735344071 -0.002649540430995171
            2.059999999999996e-10  0.9890742814940262 -0.09874083139873856 -0.002519989014827557
            2.069999999999996e-10  0.9890428966465588 -0.09909106272359883 -0.002397189346241578
            2.079999999999996e-10  0.9890025543302345 -0.09945384080722633 -0.002281104044719449
            2.089999999999996e-10  0.988953353775459  -0.09982803863521317 -0.00217168394945257
            2.099999999999996e-10  0.9888954016236274 -0.1002125324330617 -0.002068866881767838
            2.109999999999996e-10  0.9888288118090252 -0.100606203032933  -0.001972575345508533
            2.119999999999996e-10  0.9887537053595217 -0.1010079392889725 -0.001882713927518521
            2.129999999999995e-10  0.988670209921751  -0.1014166433155875 -0.001799167071640926
            2.139999999999995e-10  0.9885784593906379 -0.1018312369432997 -0.001721797690877148
            2.149999999999995e-10  0.9884785938361367 -0.1022506674264597 -0.001650446726786486
            2.159999999999995e-10  0.9883707597601433 -0.1026739112212316 -0.001584932824951089
            2.169999999999995e-10  0.9882551104030347 -0.1030999774943493 -0.001525051321540866
            2.179999999999995e-10  0.9881318067429706 -0.1035279127163657 -0.001470572897352653
            2.189999999999995e-10  0.9880010169588217 -0.1039568052241972 -0.00142124239112255
            2.199999999999995e-10  0.9878629170988706 -0.1043857901002346 -0.001376777624772883
            2.209999999999995e-10  0.9877176905432936 -0.1048140549032962 -0.001336868119854971
            2.219999999999995e-10  0.9875655272838026 -0.1052408461976632 -0.00130117382450948
            2.229999999999995e-10  0.9874066232693731 -0.1056654756979194 -0.001269323830894001
            2.239999999999995e-10  0.987241179952717  -0.1060873253855181 -0.001240914975065029
            2.249999999999995e-10  0.9870694037874731 -0.1065058529644781 -0.001215510347215467
            2.259999999999995e-10  0.9868915063138101 -0.1069206000049071 -0.001192638452624356
            2.269999999999995e-10  0.9867077022269184 -0.1073312026239653 -0.001171794061098457
            2.279999999999995e-10  0.9865182089766167 -0.1077374032819136 -0.001152441177944573
            2.289999999999995e-10  0.9863232451585288 -0.1081390608833033 -0.001134017682688363
            2.299999999999995e-10  0.9861230290660186 -0.1085361582378385 -0.001115940642232838
            2.309999999999995e-10  0.9859177770501296 -0.1089288068090736 -0.001097611558480705
            2.319999999999995e-10  0.9857077026149601 -0.1093172487304077 -0.001078421451256708
            2.329999999999995e-10  0.9854930157732575 -0.1097018557244121 -0.001057755798856662
            2.339999999999995e-10  0.9852739211052216 -0.1100831250288659 -0.001034999026872734
            2.349999999999995e-10  0.9850506182509563 -0.1104616743006444 -0.001009538139089097
            2.359999999999995e-10  0.984823300447135  -0.1108382369238512 -0.0009807654768116928
            2.369999999999995e-10  0.9845921529951259 -0.1112136590743468 -0.000948081085002253
            2.379999999999995e-10  0.9843573517836828 -0.1115888978600582 -0.0009108951470034463
            2.389999999999995e-10  0.9841190614248386 -0.111965018601927  -0.0008686306338645308
            2.399999999999995e-10  0.9838774338549616 -0.1123431901322823 -0.0008207258679741257
            2.409999999999995e-10  0.9836326066414167 -0.1127246783782989 -0.0007666366188741478
            2.419999999999995e-10  0.9833847021811405 -0.1131108398657685 -0.0007058376166712305
            2.429999999999995e-10  0.9831338259802435 -0.1135031161424509 -0.0006378238166021184
            2.439999999999995e-10  0.9828800644440288 -0.1139030292726511 -0.000562112054375173
            2.449999999999995e-10  0.9826234836201605 -0.114312177674607  -0.0004782435732510386
            2.459999999999995e-10  0.9823641273347941 -0.1147322309617734 -0.0003857872784541929
            2.469999999999995e-10  0.9821020154602339 -0.1151649238045749 -0.0002843431076440335
            2.479999999999995e-10  0.9818371420081777 -0.1156120493685981 -0.0001735449900490691
            2.489999999999995e-10  0.9815694739639816 -0.1160754525988868 -5.306319286048051e-05
            2.499999999999994e-10  0.981298949117719  -0.1165570229168849  7.739401074057652e-05
            2.509999999999994e-10  0.9810254751797844 -0.1170586867032382  0.0002180792868886033
            2.519999999999994e-10  0.9807489288041304 -0.1175823988501287  0.000369205782124154
            2.529999999999994e-10  0.9804691548347862 -0.1181301329956763  0.0005309475703737605
            2.539999999999994e-10  0.9801859656392526 -0.1187038718930964  0.0007034412473503112
            2.549999999999994e-10  0.9798991402482241 -0.1193056001722429  0.0008867882184011743
            2.559999999999994e-10  0.9796084234964294 -0.119937300241866   0.001081056873309798
            2.569999999999994e-10  0.9793135247422294 -0.1206009504095309  0.001286283988539696
            2.579999999999994e-10  0.9790141173533009 -0.1212985240603135  0.001502475049039579
            2.589999999999994e-10  0.9787098380498365 -0.1220319884204888  0.001729603514667603
            2.599999999999994e-10  0.9784002867055384 -0.1228033017190735  0.001967609382709913
            2.609999999999994e-10  0.9780850268256311 -0.1236144077093429  0.002216397650280575
            2.619999999999994e-10  0.9777635868620571 -0.1244672277113084  0.00247583725945754
            2.629999999999994e-10  0.9774354622510101 -0.1253636517274982  0.002745760654135076
            2.639999999999994e-10  0.9771001176993519 -0.1263055301039498  0.003025963614894701
            2.649999999999994e-10  0.9767569895931697 -0.1272946659882704  0.00331620494011737
            2.659999999999994e-10  0.9764054886267144 -0.1283328076559846  0.003616205803601771
            2.669999999999994e-10  0.9760450027507759 -0.1294216399161394  0.003925649034591309
            2.679999999999994e-10  0.9756749003540873 -0.1305627749991354  0.004244178723303656
            2.689999999999994e-10  0.9752945334368021 -0.1317577440700124  0.004571400444675067
            2.699999999999994e-10  0.9749032405545381 -0.1330079902784313  0.004906882204401549
            2.709999999999994e-10  0.9745003495067197 -0.1343148634405298  0.005250156047432083
            2.719999999999994e-10  0.9740851798917124 -0.135679615954585   0.005600720060290074
            2.729999999999994e-10  0.9736570457108213 -0.1371033996574458  0.005958040318208326
            2.739999999999994e-10  0.9732152580683654 -0.1385872634532566  0.006321552384910005
            2.749999999999994e-10  0.9727591280522716 -0.1401321514080807  0.006690662260750092
            2.759999999999994e-10  0.9722879700457976 -0.1417389007894761  0.007064746988020906
            2.769999999999994e-10  0.9718011052311841 -0.1434082396541976  0.007443155258320531
            2.779999999999994e-10  0.9712978654891409 -0.1451407845298334  0.007825208244018918
            2.789999999999993e-10  0.9707775971484724 -0.1469370392842741  0.008210200583028382
            2.799999999999993e-10  0.9702396642654605 -0.1487973962519332  0.008597401267554431
            2.809999999999993e-10  0.9696834511477043 -0.1507221397085712  0.008986054175494692
            2.819999999999993e-10  0.9691083652572348 -0.1527114506726381  0.009375378073898821
            2.829999999999993e-10  0.968513839012172  -0.1547654104663611  0.009764566161016071
            2.839999999999993e-10  0.9678993335434398 -0.1568840020781619  0.01015278561780759
            2.849999999999993e-10  0.9672643425164674 -0.1590671088513599  0.01053917759997688
            2.859999999999993e-10  0.9666083967673955 -0.1613145113576637  0.01092285782975402
            2.869999999999993e-10  0.9659310691601657 -0.1636258831778038  0.01130291794106758
            2.879999999999993e-10  0.9652319797668139 -0.1660007868761428  0.01167842767974247
            2.889999999999993e-10  0.964510801024462  -0.1684386708928028  0.01204843763821634
            2.899999999999993e-10  0.9637672628494798 -0.1709388670759658  0.01241198204113292
            2.909999999999993e-10  0.9630011574915945 -0.173500588607511   0.01276808138351502
            2.919999999999993e-10  0.9622123439654474 -0.1761229289698866  0.01311574486162567
            2.929999999999993e-10  0.9614007516962086 -0.1788048623970613  0.0134539724920021
            2.939999999999993e-10  0.9605663833375072 -0.1815452453718256  0.01378175692725889
            2.949999999999993e-10  0.9597093169718741 -0.1843428182108078  0.01409808522681927
            2.959999999999993e-10  0.9588297078989344 -0.1871962062308834  0.01440194096452528
            2.969999999999993e-10  0.9579277898600743 -0.1901039206501721  0.01469230681747989
            2.979999999999993e-10  0.9570038765032364 -0.1930643596511634  0.01496816743726502
            2.989999999999993e-10  0.9560583609266455 -0.1960758090862651  0.01522851226033619
            2.999999999999993e-10  0.9550917151966426 -0.1991364434762937  0.01547233808067293
            3.009999999999993e-10  0.9541044898728289 -0.2022443275869806  0.01569865139222766
            3.019999999999993e-10  0.953097309003711  -0.2053974171285146  0.0159064704771192
            3.029999999999993e-10  0.9520708682505455 -0.2085935593161149  0.01609482739235076
            3.039999999999993e-10  0.9510259310151929 -0.2118304905894082  0.01626276994579409
            3.049999999999993e-10  0.9499633266965698 -0.2151058322446588  0.01640936400018166
            3.059999999999993e-10  0.9488839471115603 -0.2184170841298474  0.01653369614530114
            3.069999999999993e-10  0.9477887451779747 -0.2217616195592991  0.01663487669261419
            3.079999999999992e-10  0.9466787323204872 -0.2251366819421976  0.01671204269163939
            3.089999999999992e-10  0.9455549755989964 -0.2285393835604832  0.0167643608790186
            3.099999999999992e-10  0.9444185956997286 -0.2319667062820964  0.01679103055384281
            3.109999999999992e-10  0.9432707642390012 -0.2354155032424652  0.01679128636801158
            3.119999999999992e-10  0.9421127007962867 -0.2388825013875328  0.01676440102447928