# OOMMF: rectangular mesh v1.0
# Segment count: 1
# Begin: Segment
# Begin: Header
# Desc: Time :  1.0000049097221232e-09
# Title: m
# meshtype: rectangular
# meshunit: m
# xbase: 9.765625e-10
# ybase: 9.765625e-10
# zbase: 7.5e-10
# xstepsize: 1.953125e-09
# ystepsize: 1.953125e-09
# zstepsize: 1.5e-09
# xmin: 0
# ymin: 0
# zmin: 0
# xmax: 5e-07
# ymax: 1.25e-07
# zmax: 3e-09
# xnodes: 256
# ynodes: 64
# znodes: 2
# ValueRangeMinMag: 1e-08
# ValueRangeMaxMag: 1
# valueunit: 
# valuemultiplier: 1
# End: Header
# Begin: Data Text
-0.98785156 -0.14316061 -0.060450647 
-0.9896914 -0.13180631 -0.05601792 
-0.99175537 -0.11752422 -0.05108207 
-0.99368495 -0.10246115 -0.045736954 
-0.99536836 -0.087387756 -0.04006539 
-0.9967707 -0.07265648 -0.03419277 
-0.9978897 -0.05845681 -0.028265549 
-0.99874055 -0.04489888 -0.02239083 
-0.9993467 -0.032058846 -0.01668565 
-0.9997374 -0.019984536 -0.011209867 
-0.9999436 -0.008724848 -0.006046232 
-0.99999785 0.0016933581 -0.0012084555 
-0.9999317 0.011222638 0.0032454194 
-0.99977607 0.019846814 0.007335976 
-0.99956083 0.027511815 0.01101238 
-0.99931186 0.034216132 0.014313078 
-0.99905586 0.039902873 0.017178219 
-0.99881166 0.04459725 0.019653024 
-0.9986003 0.048251897 0.021661364 
-0.9984309 0.050937973 0.023256522 
-0.9983169 0.052634634 0.024350915 
-0.99825543 0.05348033 0.025016256 
-0.99825084 0.05349709 0.025165886 
-0.998289 0.052904945 0.024901273 
-0.9983668 0.051775176 0.024147136 
-0.9984629 0.050407425 0.023039803 
-0.9985714 0.04891021 0.02151661 
-0.9986695 0.047637135 0.01974317 
-0.9987528 0.046699766 0.017662121 
-0.9988005 0.046459038 0.015456282 
-0.9988104 0.04697838 0.0130634615 
-0.99876285 0.04856704 0.010671844 
-0.9986552 0.05118897 0.008208448 
-0.9984664 0.055049565 0.005862946 
-0.9981932 0.059979074 0.003554206 
-0.9978149 0.06605419 0.0014764994 
-0.997334 0.072970174 -0.00045185816 
-0.9967374 0.08068672 -0.0020257956 
-0.99604374 0.08880172 -0.0033231305 
-0.9952559 0.097204216 -0.0041292585 
-0.99441326 0.10546007 -0.0045234086 
-0.9935341 0.113452725 -0.004295188 
-0.99267215 0.120786294 -0.0035423962 
-0.9918492 0.12740003 -0.002082067 
-0.9911174 0.13298938 -5.324886e-05 
-0.9904862 0.13758582 0.002675148 
-0.98999214 0.14099823 0.0059061535 
-0.9896237 0.14335454 0.009704717 
-0.98939866 0.14456572 0.013815606 
-0.98928773 0.14483376 0.018242044 
-0.9892975 0.14413713 0.022690386 
-0.9893922 0.14271319 0.02712523 
-0.98957825 0.14056407 0.031249976 
-0.9898233 0.1379244 0.035025164 
-0.9901392 0.13477965 0.038192715 
-0.9905005 0.13133374 0.040742986 
-0.9909238 0.12753175 0.04249191 
-0.9913866 0.12353774 0.04348406 
-0.9919051 0.11925037 0.04363094 
-0.9924555 0.114802465 0.04304083 
-0.99304897 0.11005746 0.041724503 
-0.993659 0.10513683 0.03984787 
-0.99429137 0.09988815 0.037507933 
-0.994918 0.09444358 0.03490825 
-0.99554193 0.08865229 0.03220387 
-0.996137 0.08267147 0.029604252 
-0.9967069 0.076361075 0.027281957 
-0.9972298 0.06990618 0.025412597 
-0.9977104 0.063176066 0.024138853 
-0.99813145 0.056377098 0.023561208 
-0.9984976 0.049381737 0.023747008 
-0.9987951 0.04240938 0.024690084 
-0.99902815 0.0353309 0.026353488 
-0.99918765 0.028375302 0.028614167 
-0.9992796 0.021415668 0.031329367 
-0.9993041 0.014695528 0.03428058 
-0.999273 0.008100885 0.037251227 
-0.9991986 0.0018989865 0.03997941 
-0.99909973 -0.0039997594 0.0422333 
-0.998998 -0.009299362 0.04377791 
-0.9989133 -0.014062624 0.044435356 
-0.998867 -0.017972698 0.044064865 
-0.9988699 -0.02107839 0.042598154 
-0.99893206 -0.023066511 0.040033195 
-0.9990477 -0.02399952 0.036436632 
-0.9992106 -0.023603935 0.031952087 
-0.9993997 -0.02199089 0.026768263 
-0.99959666 -0.018962532 0.021142256 
-0.99977416 -0.014707112 0.015336536 
-0.99991167 -0.009124908 0.009659103 
-0.9999873 -0.002488733 0.004376877 
-0.99998635 0.005206218 -0.0002279222 
-0.9998993 0.013621538 -0.003955993 
-0.99972045 0.02269779 -0.0066191293 
-0.99945235 0.032073576 -0.008139586 
-0.9990954 0.041673142 -0.008464155 
-0.9986609 0.051164024 -0.007654058 
-0.99815124 0.060502518 -0.005791414 
-0.99758226 0.06942742 -0.0030527804 
-0.9969565 0.07795749 0.00038497936 
-0.99629265 0.08592108 0.0042891577 
-0.9955925 0.0934027 0.008455587 
-0.99487555 0.10030937 0.012668467 
-0.99414235 0.10676967 0.016768184 
-0.99341077 0.11273859 0.020618062 
-0.9926776 0.11835402 0.024151348 
-0.9919576 0.1235823 0.0273406 
-0.9912435 0.12854138 0.03022351 
-0.9905463 0.13318303 0.032868963 
-0.9898563 0.13759324 0.035391245 
-0.9891829 0.1417039 0.03790973 
-0.988515 0.14557748 0.040560342 
-0.9878611 0.1491389 0.04345176 
-0.98720783 0.15245047 0.04668387 
-0.98656183 0.1554517 0.050302595 
-0.9859067 0.15822841 0.054329216 
-0.98524696 0.16074863 0.05872087 
-0.9845644 0.16313207 0.06340941 
-0.98386526 0.16537407 0.06826798 
-0.98313415 0.16761623 0.07315748 
-0.9823848 0.16985807 0.077899106 
-0.98161006 0.17223375 0.0823238 
-0.9808349 0.17471182 0.08624701 
-0.9800621 0.17738324 0.089517236 
-0.9793274 0.18015362 0.09199195 
-0.97864014 0.1830469 0.09358005 
-0.9780424 0.18589295 0.09421667 
-0.97754514 0.1886496 0.09389691 
-0.97719103 0.19108512 0.092650265 
-0.97698706 0.19311889 0.09056159 
-0.9769708 0.19449511 0.08774752 
-0.97714037 0.1951395 0.08436326 
-0.9775234 0.19481856 0.08058396 
-0.97810364 0.19350916 0.07659814 
-0.9788939 0.1910397 0.072598 
-0.979861 0.18746796 0.06876065 
-0.9809996 0.18270648 0.06525309 
-0.98226047 0.17690445 0.06220213 
-0.9836226 0.17006001 0.059717458 
-0.98502684 0.1624044 0.05785284 
-0.98644423 0.1540088 0.056648336 
-0.98781693 0.145164 0.05608164 
-0.9891186 0.1359916 0.056130778 
-0.99030393 0.12681252 0.056715343 
-0.9913586 0.11777132 0.057774518 
-0.9922568 0.10918661 0.05919912 
-0.9929994 0.10119645 0.060920995 
-0.9935794 0.094083905 0.06283339 
-0.99400896 0.087952346 0.06488888 
-0.9942928 0.083017156 0.067007266 
-0.9944457 0.07932204 0.069179095 
-0.99447477 0.07699054 0.07136042 
-0.9943899 0.07598916 0.0735814 
-0.99419457 0.07633573 0.075827815 
-0.9938917 0.077914454 0.07815644 
-0.9934821 0.08063872 0.08056376 
-0.9929666 0.08432118 0.08310995 
-0.99235 0.08878874 0.08577808 
-0.9916393 0.09380773 0.08860842 
-0.9908517 0.09915227 0.09155082 
-0.990006 0.10457924 0.094610326 
-0.9891348 0.10985133 0.09769805 
-0.9882678 0.114757515 0.10078399 
-0.98744786 0.11908964 0.103750885 
-0.9867069 0.122703694 0.10655097 
-0.98608667 0.12545086 0.10906429 
-0.98560846 0.12727481 0.111252 
-0.9853003 0.1280985 0.11302209 
-0.98516345 0.12795408 0.114370465 
-0.98520577 0.12682857 0.11525656 
-0.98540646 0.124826506 0.115725525 
-0.9857553 0.12197505 0.115794785 
-0.98621684 0.118422054 0.11555238 
-0.98677164 0.11420413 0.115061305 
-0.9873807 0.10947999 0.11442693 
-0.9880255 0.1042665 0.11372832 
-0.9886738 0.09870683 0.11305328 
-0.9893148 0.0927793 0.11246406 
-0.98992753 0.08659964 0.11200006 
-0.99051 0.08010283 0.11168432 
-0.9910521 0.07338002 0.11149407 
-0.9915579 0.06633474 0.11141125 
-0.99202436 0.059049748 0.111358844 
-0.992456 0.051419742 0.11129668 
-0.99285275 0.043543063 0.111118615 
-0.99321544 0.03533057 0.11079141 
-0.99354386 0.026917856 0.11020811 
-0.9938337 0.018251656 0.1093683 
-0.99408525 0.009516252 0.10818387 
-0.99429107 0.00070141006 0.10669937 
-0.9944561 -0.007963466 0.10484989 
-0.994574 -0.016454075 0.10272128 
-0.99465877 -0.0245157 0.10026365 
-0.9947083 -0.03211059 0.097592294 
-0.99474597 -0.038986947 0.09465988 
-0.99477315 -0.04511977 0.09159989 
-0.9948183 -0.050289188 0.08835949 
-0.9948818 -0.054504875 0.08508451 
-0.9949898 -0.057600398 0.08171473 
-0.9951363 -0.059633408 0.07840638 
-0.99533945 -0.060499735 0.07509297 
-0.9955842 -0.060306344 0.071939014 
-0.9958789 -0.05900877 0.06887046 
-0.99620056 -0.056754906 0.06605407 
-0.9965503 -0.053549204 0.063401945 
-0.9969016 -0.049567726 0.061074663 
-0.9972521 -0.044848908 0.05896357 
-0.9975768 -0.039582573 0.057216484 
-0.99787426 -0.03382719 0.055701952 
-0.99812436 -0.027774014 0.05455499 
-0.9983299 -0.021489771 0.05362547 
-0.99847716 -0.015157947 0.053041454 
-0.99857426 -0.008845142 0.052642222 
-0.9986143 -0.00271963 0.05255541 
-0.9986098 0.0031588145 0.052616164 
-0.99855953 0.00864415 0.0529536 
-0.9984794 0.013691825 0.053398233 
-0.99837106 0.018187817 0.05407603 
-0.99825203 0.022112856 0.054807298 
-0.99812406 0.025397934 0.055706438 
-0.99800366 0.0280608 0.056578405 
-0.9978908 0.030089306 0.05752034 
-0.9977993 0.031547617 0.058321316 
-0.9977254 0.032487117 0.059063435 
-0.99768025 0.033019114 0.05952915 
-0.9976565 0.03325533 0.059795357 
-0.99766207 0.03334388 0.05965321 
-0.9976864 0.033441935 0.05918905 
-0.99773425 0.033715367 0.05821991 
-0.99779147 0.034345414 0.05685442 
-0.99785817 0.035492886 0.054948557 
-0.9979151 0.03734161 0.0526409 
-0.99795514 0.04002755 0.049831383 
-0.9979523 0.043719463 0.046688627 
-0.9978897 0.048515134 0.0431539 
-0.99773234 0.054556023 0.03941796 
-0.9974529 0.06189084 0.03545443 
-0.9970066 0.070623934 0.031465303 
-0.9963567 0.08074741 0.02744165 
-0.9954503 0.09231739 0.023582874 
-0.99424547 0.10526456 0.01988231 
-0.99268585 0.11959021 0.016519869 
-0.99073166 0.13516359 0.013475413 
-0.98833054 0.15193374 0.010896236 
-0.9854528 0.1697244 0.008735443 
-0.98205745 0.188448 0.007095589 
-0.9781304 0.20790862 0.005896235 
-0.97364616 0.22800454 0.0051889163 
-0.9686077 0.2485465 0.0048623746 
-0.96300733 0.26943 0.0049197464 
-0.9568701 0.29046884 0.005231661 
-0.9502231 0.311517 0.0057694246 
-0.94315344 0.3322955 0.006420904 
-0.9358255 0.35239005 0.007196031 
-0.9286496 0.3708677 0.008182458 
-0.9227569 0.38525966 0.009721333 
-0.98856586 -0.13771938 -0.061406355 
-0.9901042 -0.12844221 -0.056535054 
-0.9919919 -0.11538997 -0.051354308 
-0.9938299 -0.100967765 -0.045906942 
-0.9954654 -0.08621878 -0.040186133 
-0.99683994 -0.07163985 -0.034319423 
-0.9979422 -0.05748952 -0.028395772 
-0.99877983 -0.043925326 -0.022568157 
-0.9993757 -0.03103406 -0.016882334 
-0.99975556 -0.018898124 -0.011473965 
-0.9999514 -0.007547696 -0.0063296817 
-0.9999944 0.002943555 -0.001570845 
-0.99991673 0.012575715 0.0028725285 
-0.9997503 0.021259619 0.00687765 
-0.9995228 0.029025856 0.010558553 
-0.99926543 0.035761695 0.013770607 
-0.9989978 0.041541215 0.016660001 
-0.9987491 0.046231285 0.019045882 
-0.9985277 0.049970046 0.021102235 
-0.9983588 0.05261499 0.022610245 
-0.9982364 0.054392807 0.023779282 
-0.9981799 0.05516604 0.024361402 
-0.998168 0.055270903 0.024613235 
-0.99821407 0.054585837 0.024270136 
-0.9982844 0.05356384 0.023644729 
-0.9983893 0.052096043 0.022463351 
-0.99848914 0.050738342 0.021092433 
-0.9985949 0.049372014 0.019248545 
-0.998667 0.04861478 0.01733972 
-0.9987194 0.048297197 0.015065862 
-0.998714 0.049039327 0.012861343 
-0.99866617 0.050572176 0.010403339 
-0.99853706 0.053453878 0.00814126 
-0.9983419 0.05727643 0.0057301945 
-0.998039 0.06248934 0.0036324775 
-0.9976476 0.06853436 0.001488395 
-0.99712765 0.07573869 -0.00022340067 
-0.9965128 0.08341965 -0.0018683927 
-0.9957725 0.09180685 -0.0029500574 
-0.9949645 0.100154206 -0.0038380786 
-0.99407226 0.10864702 -0.00402649 
-0.9931769 0.11655227 -0.0038987268 
-0.9922686 0.12407275 -0.0029596607 
-0.9914393 0.13055806 -0.0016246134 
-0.99067074 0.1362759 0.0005626543 
-0.99004745 0.14069891 0.0031381883 
-0.98953027 0.14417939 0.006495185 
-0.9891858 0.14631788 0.01011648 
-0.9889521 0.14754161 0.014321998 
-0.98888004 0.1475529 0.018555623 
-0.98889345 0.14682412 0.023072721 
-0.9890379 0.14511386 0.02731205 
-0.98923564 0.14290352 0.03148736 
-0.9895357 0.13995941 0.035077933 
-0.9898666 0.13674174 0.038285103 
-0.9902831 0.13298558 0.04067252 
-0.99072015 0.12911631 0.04245441 
-0.991234 0.12481627 0.043312646 
-0.9917626 0.12048131 0.04348642 
-0.9923573 0.11573942 0.042792283 
-0.9929564 0.110976525 0.041494362 
-0.9936032 0.10577881 0.03954005 
-0.9942363 0.10054768 0.037205473 
-0.9948923 0.09484545 0.034547497 
-0.9955131 0.08910914 0.03183087 
-0.99613124 0.08289067 0.029184315 
-0.9966953 0.07667172 0.026829368 
-0.9972358 0.069998324 0.02491742 
-0.9977098 0.06339261 0.02359138 
-0.99814445 0.056391574 0.022971 
-0.99850476 0.049547907 0.023089387 
-0.9988133 0.04238543 0.023989229 
-0.999043 0.035478342 0.025578443 
-0.99921167 0.028339038 0.027798915 
-0.9993038 0.021561807 0.030444413 
-0.9993357 0.014658774 0.033364985 
-0.9993075 0.00825011 0.036282945 
-0.99923754 0.0018630231 0.038997967 
-0.99914235 -0.003850711 0.041227855 
-0.99904066 -0.009337078 0.042783972 
-0.99895847 -0.013916342 0.0434542 
-0.9989073 -0.018008951 0.04312346 
-0.99891055 -0.020927167 0.04170947 
-0.99896425 -0.023083888 0.039210845 
-0.9990786 -0.023818396 0.035702784 
-0.99923205 -0.02356597 0.03130341 
-0.99941945 -0.021735054 0.026232686 
-0.99960876 -0.018814351 0.020697387 
-0.99978477 -0.014315473 0.015012335 
-0.999917 -0.008798244 0.009414596 
-0.9999892 -0.0018909405 0.004241241 
-0.99998313 0.0057830433 -0.00031031482 
-0.9998871 0.014494305 -0.003958062 
-0.9996999 0.0235894 -0.0066049704 
-0.9994134 0.03327761 -0.008083614 
-0.9990426 0.042927198 -0.008430804 
-0.9985794 0.05273565 -0.007618547 
-0.9980502 0.062143996 -0.0058107013 
-0.9974444 0.071379565 -0.0031018602 
-0.9967957 0.07998883 0.00026197944 
-0.9960901 0.088246144 0.0041175135 
-0.9953659 0.09580803 0.008205954 
-0.99460596 0.10298569 0.012365796 
-0.9938491 0.10952252 0.016395265 
-0.9930744 0.11573719 0.020197654 
-0.9923186 0.12142213 0.023674058 
-0.9915563 0.12687176 0.026825637 
-0.9908203 0.13189119 0.029662224 
-0.9900822 0.13673106 0.032276955 
-0.98937225 0.14118937 0.034755908 
-0.98866063 0.14547561 0.037242614 
-0.9879768 0.14938028 0.03984246 
-0.98728895 0.1530939 0.042692944 
-0.98662627 0.15641409 0.045859385 
-0.9859531 0.15954287 0.049422085 
-0.98529714 0.1623007 0.05336627 
-0.984618 0.1649229 0.05768747 
-0.98394394 0.16725822 0.062281284 
-0.9832323 0.16957797 0.0670621 
-0.9825173 0.17174505 0.07185531 
-0.9817598 0.17404541 0.076522924 
-0.98100495 0.17632474 0.08086262 
-0.98022133 0.1788496 0.08472814 
-0.9794676 0.18141158 0.08793721 
-0.97871953 0.18422599 0.09038104 
-0.97804683 0.18700615 0.09194007 
-0.9774286 0.18990187 0.09257714 
-0.9769407 0.1925475 0.0922625 
-0.97655964 0.19504334 0.091045775 
-0.97636193 0.19697107 0.088992216 
-0.97631675 0.19841886 0.086229034 
-0.9764949 0.19896017 0.08289968 
-0.97685295 0.19871816 0.07917964 
-0.9774499 0.19730216 0.07525618 
-0.97822547 0.1949096 0.071309805 
-0.9792214 0.19121961 0.06753048 
-0.98035973 0.18652321 0.06406061 
-0.9816628 0.18058348 0.06105528 
-0.9830396 0.17378299 0.058586787 
-0.984497 0.16596587 0.05675254 
-0.9859417 0.15758775 0.05554233 
-0.9873732 0.14855936 0.054992873 
-0.9887094 0.13937879 0.055019133 
-0.98995286 0.13000153 0.05561262 
-0.9910436 0.12093234 0.05663796 
-0.9919934 0.11214729 0.058068812 
-0.9927683 0.10411891 0.059751626 
-0.99338955 0.09681782 0.06167205 
-0.99384457 0.09064711 0.063687064 
-0.9941577 0.08554751 0.0658177 
-0.99432814 0.08181961 0.067948766 
-0.9943752 0.07935573 0.07014659 
-0.9943003 0.07833147 0.072325766 
-0.99411315 0.078580596 0.07459191 
-0.9938142 0.080146074 0.0768762 
-0.99340504 0.08280675 0.079305194 
-0.9928891 0.08648259 0.0818041 
-0.9922674 0.0909162 0.08449561 
-0.99155426 0.09593136 0.087277286 
-0.99075764 0.10126609 0.09024645 
-0.9899092 0.106687605 0.09325995 
-0.9890267 0.11196867 0.09638041 
-0.9881583 0.11686419 0.09942819 
-0.9873259 0.12121921 0.10243727 
-0.98658586 0.12481464 0.105211854 
-0.98595303 0.12759522 0.10777802 
-0.9854785 0.12939014 0.10995503 
-0.9851587 0.13025436 0.1117863 
-0.98502886 0.13006884 0.113137305 
-0.9850613 0.12898943 0.11408725 
-0.9852727 0.12693267 0.11456714 
-0.98561484 0.12413092 0.114693984 
-0.986091 0.120508395 0.11446446 
-0.9866434 0.11634145 0.11401493 
-0.9872709 0.111531 0.113388464 
-0.98791856 0.10636647 0.112707466 
-0.98858905 0.10070098 0.11203124 
-0.9892385 0.09481613 0.11143154 
-0.9898763 0.088507004 0.110957146 
-0.9904727 0.08204108 0.11060326 
-0.99104154 0.07516032 0.110397056 
-0.9915658 0.06812808 0.1102533 
-0.9920586 0.06065239 0.11018654 
-0.9925115 0.05301252 0.11004787 
-0.9929313 0.04490922 0.10986536 
-0.9933156 0.036660563 0.10945363 
-0.9936605 0.027985735 0.10888341 
-0.9939689 0.019257458 0.1079579 
-0.9942269 0.01022987 0.106809475 
-0.9944456 0.0013316042 0.10524245 
-0.9946047 -0.007645253 0.103455134 
-0.9947285 -0.016231965 0.101249784 
-0.9947948 -0.024610875 0.09888171 
-0.9948434 -0.03230251 0.09614072 
-0.99485236 -0.039484713 0.093325414 
-0.99487424 -0.045701478 0.090203315 
-0.99488497 -0.051148433 0.08710656 
-0.99494195 -0.055423457 0.083776854 
-0.99501526 -0.058755152 0.080574855 
-0.9951577 -0.060813755 0.07721802 
-0.9953305 -0.061866567 0.0740924 
-0.99557626 -0.06166021 0.07089354 
-0.9958476 -0.060496043 0.06802684 
-0.99617636 -0.05819043 0.06516404 
-0.99651074 -0.055067163 0.06272035 
-0.9968743 -0.050998595 0.06033862 
-0.99721617 -0.046316586 0.058434185 
-0.9975564 -0.04093361 0.056617647 
-0.99784994 -0.035177242 0.055299833 
-0.9981168 -0.028985692 0.054061554 
-0.9983205 -0.02267135 0.053311452 
-0.99848396 -0.016187755 0.052608732 
-0.9985796 -0.009824418 0.052365962 
-0.998634 -0.0035425648 0.05213007 
-0.9986273 0.0023983628 0.052321695 
-0.99858963 0.008036113 0.052479796 
-0.99850625 0.013150408 0.053030442 
-0.99840915 0.017786618 0.053503312 
-0.998286 0.021776171 0.054320756 
-0.9981687 0.025182856 0.05499879 
-0.99804366 0.027904123 0.055946562 
-0.9979415 0.030032247 0.056664392 
-0.9978446 0.031542268 0.057543058 
-0.99778116 0.032559987 0.058073852 
-0.9977293 0.033141162 0.05863212 
-0.9977146 0.033439662 0.058714617 
-0.9977112 0.03358315 0.058690485 
-0.9977416 0.033737406 0.058081273 
-0.99777716 0.03408391 0.057261314 
-0.9978364 0.03477721 0.055794436 
-0.99788696 0.036030047 0.054068245 
-0.9979408 0.037963618 0.05170046 
-0.9979604 0.040801466 0.049094148 
-0.99794817 0.04461433 0.04592292 
-0.9978591 0.0496204 0.04260145 
-0.99768406 0.05582906 0.038854036 
-0.99736816 0.063440785 0.03509795 
-0.9968911 0.072396204 0.031095896 
-0.996188 0.08286448 0.027256193 
-0.9952304 0.09471322 0.023364777 
-0.9939463 0.10806659 0.01980705 
-0.9923062 0.12272002 0.016377188 
-0.99023694 0.13874641 0.013422976 
-0.98771757 0.15588094 0.01073244 
-0.9846817 0.17414868 0.008602531 
-0.98112553 0.19325203 0.0068074465 
-0.976996 0.21318413 0.005582315 
-0.97230965 0.23364897 0.004686756 
-0.96703124 0.25462136 0.004288566 
-0.9611986 0.27582595 0.0041449177 
-0.95480394 0.29720438 0.0043592057 
-0.9479245 0.31846 0.004712158 
-0.94063586 0.33937633 0.005274022 
-0.9331798 0.35936075 0.005941974 
-0.92605054 0.37733507 0.006976257 
-0.9205882 0.39043632 0.008768974 
-0.98954165 -0.12963173 -0.06326771 
-0.990836 -0.12191959 -0.058134373 
-0.9924951 -0.110342294 -0.052706324 
-0.99417514 -0.09696403 -0.04705027 
-0.99570584 -0.0828983 -0.04120246 
-0.9970123 -0.06875019 -0.035211187 
-0.99806523 -0.05486905 -0.029242203 
-0.998868 -0.04145276 -0.023331905 
-0.9994336 -0.028649684 -0.017654318 
-0.9997892 -0.016527126 -0.012180849 
-0.9999614 -0.005190025 -0.0070834816 
-0.9999831 0.0053548585 -0.0022612603 
-0.9998853 0.014991603 0.0021046703 
-0.9996985 0.023761785 0.006182575 
-0.9994556 0.031515926 0.0097609535 
-0.99917877 0.03835372 0.013064571 
-0.9989024 0.044084195 0.015830893 
-0.99863595 0.04888682 0.01833469 
-0.9984138 0.05253153 0.020252066 
-0.998229 0.055304766 0.02191079 
-0.9981139 0.056946706 0.022929093 
-0.9980424 0.05787661 0.023698902 
-0.99804366 0.0578156 0.023792 
-0.9980744 0.057331964 0.023675283 
-0.99816114 0.056130234 0.022885991 
-0.9982488 0.05492385 0.021968659 
-0.99836475 0.05338808 0.020431247 
-0.9984501 0.052351337 0.018886475 
-0.9985351 0.05142827 0.016811483 
-0.9985619 0.0515064 0.014869464 
-0.99856377 0.05209699 0.012502302 
-0.9984825 0.054077327 0.010407006 
-0.99835277 0.05681447 0.007988912 
-0.998113 0.061112456 0.005969389 
-0.9978011 0.06617418 0.0037238176 
-0.99735236 0.07269242 0.0019963633 
-0.9968171 0.07972154 0.00014221374 
-0.9961336 0.087843604 -0.0010696065 
-0.995377 0.09601664 -0.002296404 
-0.994495 0.10474742 -0.0027487325 
-0.99359286 0.11297602 -0.0030980874 
-0.99262613 0.12118923 -0.0025505826 
-0.99172205 0.12838997 -0.001802695 
-0.99083203 0.13509876 -8.2771156e-05 
-0.99008745 0.14043991 0.0018722954 
-0.98942 0.14500006 0.004782829 
-0.9889486 0.14804989 0.007864084 
-0.98857874 0.15024526 0.011763105 
-0.98841125 0.15099029 0.01565661 
-0.98833054 0.15099104 0.020111443 
-0.988426 0.14974493 0.024295935 
-0.98857415 0.14797644 0.028706623 
-0.9888633 0.14522322 0.03254868 
-0.9891735 0.14219792 0.036269166 
-0.98959804 0.13842687 0.0391611 
-0.9900254 0.1345936 0.041643582 
-0.9905518 0.13017626 0.0431423 
-0.9910729 0.12582922 0.044062663 
-0.9916813 0.12096596 0.043991994 
-0.9922769 0.11622932 0.043325625 
-0.9929434 0.110969394 0.0418212 
-0.9935835 0.1058453 0.03985653 
-0.9942703 0.100157335 0.037347957 
-0.9949119 0.094606504 0.034638714 
-0.9955729 0.08845875 0.031772807 
-0.9961702 0.08247289 0.029035263 
-0.99676263 0.07588949 0.026549345 
-0.99727887 0.06952654 0.024512704 
-0.9977719 0.0626005 0.023069784 
-0.99818283 0.05597865 0.022302713 
-0.9985567 0.048850793 0.022318149 
-0.99884623 0.042121135 0.0230648 
-0.99908686 0.034953203 0.024568446 
-0.99924475 0.028280448 0.026646819 
-0.9993468 0.021250166 0.029229945 
-0.99937665 0.014825856 0.032037225 
-0.9993567 0.00815654 0.03492293 
-0.99929154 0.0022406809 0.03756878 
-0.99920046 -0.0037520016 0.039802298 
-0.9991062 -0.008788114 0.041344393 
-0.9990217 -0.01366728 0.04205706 
-0.9989767 -0.017335577 0.041772287 
-0.99897027 -0.020568248 0.040437248 
-0.9990268 -0.022322528 0.03804184 
-0.99912643 -0.023371534 0.034640968 
-0.9992796 -0.022727897 0.030390667 
-0.99945164 -0.021192549 0.025440741 
-0.99963844 -0.017877692 0.02008099 
-0.99980164 -0.01363626 0.014511111 
-0.9999289 -0.007708984 0.009090936 
-0.9999915 -0.0010053553 0.0040068626 
-0.99997467 0.007103284 -0.00038993603 
-0.99986917 0.01567315 -0.003989927 
-0.9996603 0.025229117 -0.0065236497 
-0.99936086 0.034838583 -0.008003008 
-0.998954 0.04496865 -0.008286868 
-0.99847156 0.05475336 -0.007518898 
-0.9978917 0.06464943 -0.0056940974 
-0.99726075 0.07390324 -0.003058867 
-0.9965502 0.08299177 0.00028921117 
-0.9958156 0.09129463 0.004061433 
-0.99502313 0.0993131 0.008119193 
-0.9942324 0.10654983 0.012203697 
-0.9934046 0.11351011 0.016203877 
-0.9925992 0.11978692 0.019949118 
-0.9917721 0.12585786 0.023406481 
-0.9909794 0.13136415 0.026518269 
-0.99017334 0.13673139 0.029345857 
-0.98940665 0.14161551 0.031928495 
-0.9886294 0.14638473 0.03439969 
-0.98789334 0.15069492 0.0368471 
-0.9871471 0.15487401 0.039428126 
-0.9864427 0.15858214 0.042218536 
-0.9857253 0.16213977 0.04534516 
-0.98504704 0.16522343 0.04882019 
-0.9843467 0.16817877 0.052700184 
-0.9836766 0.1707087 0.056909528 
-0.9829696 0.17319997 0.06142134 
-0.98228127 0.17537673 0.06607817 
-0.98154294 0.17765944 0.0707852 
-0.9808199 0.17976849 0.07533562 
-0.9800469 0.18213017 0.079603 
-0.97930366 0.18442477 0.08337721 
-0.97853094 0.18704875 0.08654353 
-0.97782356 0.18960872 0.088935845 
-0.9771262 0.19244629 0.09049136 
-0.9765451 0.19508034 0.09112235 
-0.97602457 0.19779685 0.09084275 
-0.9756769 0.20003885 0.08966084 
-0.97544044 0.20206407 0.087669656 
-0.97542775 0.20327576 0.08496866 
-0.9755658 0.20394735 0.08171109 
-0.97596043 0.20348802 0.07806301 
-0.9765226 0.20223203 0.074200116 
-0.9773438 0.19963565 0.07031879 
-0.9783167 0.19612335 0.06657233 
-0.9795127 0.19122538 0.06314849 
-0.9808089 0.18546435 0.06014005 
-0.9822554 0.17845285 0.05769516 
-0.9837232 0.170799 0.05582248 
-0.98524624 0.16219296 0.054617625 
-0.9867029 0.15330032 0.05400327 
-0.9881201 0.14387392 0.054026116 
-0.9893979 0.13459958 0.05454035 
-0.9905651 0.12527281 0.055565212 
-0.9915518 0.11655765 0.056914296 
-0.9923922 0.10827084 0.0586087 
-0.9930469 0.10101056 0.060453262 
-0.99355227 0.09459243 0.062497806 
-0.9938913 0.08950854 0.06456203 
-0.99409556 0.085554086 0.06674162 
-0.9941591 0.083084136 0.068881795 
-0.9941025 0.081860796 0.07112687 
-0.9939231 0.08208362 0.07334117 
-0.9936295 0.0834805 0.07570535 
-0.99322206 0.08609567 0.078085385 
-0.9927018 0.08963518 0.080675706 
-0.99207884 0.09400639 0.08332085 
-0.9913546 0.09891834 0.086204514 
-0.9905566 0.10417768 0.08913233 
-0.9896924 0.109531224 0.09225935 
-0.9888103 0.11472879 0.095348656 
-0.9879223 0.11959397 0.09852253 
-0.987093 0.12386252 0.10151526 
-0.9863301 0.12746672 0.10442775 
-0.9857029 0.1301614 0.1069941 
-0.98520297 0.1320049 0.109315366 
-0.98489153 0.13278513 0.11116059 
-0.9847354 0.13268623 0.11265156 
-0.98478 0.13152273 0.11362189 
-0.98496723 0.12958646 0.114222765 
-0.9853265 0.12669621 0.11436619 
-0.9857837 0.123221524 0.11422288 
-0.9863592 0.11895516 0.113776505 
-0.9869759 0.11431048 0.113188356 
-0.9876532 0.10902696 0.112490766 
-0.9883228 0.10353408 0.11179734 
-0.98900795 0.09750077 0.11116094 
-0.9896556 0.091358505 0.11061284 
-0.9902925 0.08470419 0.11020829 
-0.990882 0.07797214 0.1098783 
-0.9914491 0.07070171 0.10968036 
-0.9919717 0.06334522 0.10945105 
-0.9924666 0.055409696 0.109268695 
-0.9929228 0.04738732 0.10889764 
-0.9933433 0.038781986 0.10846594 
-0.99372697 0.03014479 0.107693404 
-0.9940605 0.021001028 0.10678269 
-0.99435484 0.011968172 0.10542803 
-0.99458236 0.0026054673 0.10391856 
-0.994771 -0.0064135157 0.101927966 
-0.994884 -0.015496791 0.09982805 
-0.99497044 -0.023942668 0.09726479 
-0.9949887 -0.0321407 0.094680294 
-0.9950086 -0.039398327 0.09168193 
-0.99498445 -0.0461066 0.088769 
-0.9949996 -0.05162006 0.08550453 
-0.99500203 -0.056347802 0.08243597 
-0.9950775 -0.05972074 0.07908301 
-0.9951647 -0.062174927 0.0760356 
-0.9953419 -0.06323129 0.072774425 
-0.9955385 -0.06335164 0.06992573 
-0.9958201 -0.062146433 0.06693311 
-0.99610984 -0.060094558 0.0644495 
-0.9964612 -0.05688433 0.061879516 
-0.9967969 -0.052998316 0.059891406 
-0.99716175 -0.048186958 0.05784783 
-0.9974839 -0.042922273 0.05642284 
-0.9978039 -0.03700041 0.0549386 
-0.9980595 -0.030871866 0.054073744 
-0.99829096 -0.024364458 0.053116806 
-0.99844706 -0.017898325 0.052755404 
-0.99856955 -0.011324069 0.052255243 
-0.99861777 -0.0050240955 0.05231827 
-0.9986361 0.0011351076 0.052196845 
-0.99859196 0.0068169 0.052607372 
-0.9985316 0.012145924 0.052791987 
-0.99842715 0.016843129 0.05347421 
-0.99832565 0.021033483 0.053884204 
-0.99819964 0.024510713 0.054740384 
-0.9980957 0.027410524 0.05525937 
-0.99798334 0.029614575 0.05614344 
-0.9979069 0.031276718 0.056598485 
-0.99783146 0.032376118 0.057306476 
-0.9977986 0.033084102 0.057474732 
-0.9977687 0.03347572 0.057766933 
-0.99778074 0.033728063 0.057410628 
-0.99779177 0.03399825 0.05705873 
-0.9978374 0.03444828 0.055980083 
-0.997872 0.03529634 0.054823082 
-0.99792564 0.03666433 0.052914705 
-0.9979492 0.03880924 0.05090298 
-0.9979639 0.041792806 0.04818112 
-0.9979145 0.045890845 0.04539451 
-0.99781024 0.05109077 0.04200325 
-0.9975873 0.05767243 0.038644157 
-0.9972416 0.065540195 0.034834992 
-0.9966982 0.07496253 0.031195391 
-0.99594235 0.08575677 0.027287709 
-0.9948881 0.09816181 0.02370331 
-0.99351645 0.111909136 0.020033935 
-0.99173516 0.12719253 0.016830346 
-0.98953116 0.14366755 0.013699712 
-0.98681366 0.16147612 0.01113888 
-0.9835866 0.1802234 0.008761006 
-0.9797699 0.20000458 0.006995636 
-0.97539157 0.22041184 0.0054607373 
-0.9703888 0.24150595 0.004507077 
-0.96481586 0.2628995 0.003765178 
-0.9586358 0.28461388 0.0035018784 
-0.9519362 0.30627766 0.0033811398 
-0.9447396 0.32780215 0.0035920907 
-0.9372286 0.34869376 0.003882071 
-0.9296451 0.36842936 0.004444985 
-0.9226135 0.3856883 0.0053611305 
-0.91743714 0.39781573 0.007181971 
-0.99061614 -0.11963339 -0.06608624 
-0.99173516 -0.11300887 -0.06074721 
-0.99318284 -0.102751344 -0.055043906 
-0.99468046 -0.09052455 -0.049153417 
-0.9960734 -0.07735314 -0.043058664 
-0.9972752 -0.0638718 -0.03691274 
-0.9982523 -0.050468143 -0.030747171 
-0.9989933 -0.037406795 -0.024759775 
-0.9995125 -0.024834331 -0.018918505 
-0.99982655 -0.0129028475 -0.013432893 
-0.99996513 -0.001652578 -0.008187253 
-0.9999556 0.008775969 -0.0034087996 
-0.9998298 0.018413208 0.0011050829 
-0.9996201 0.02708525 0.005090272 
-0.9993519 0.03489594 0.008829332 
-0.9990615 0.04161775 0.0119972415 
-0.99876183 0.04744745 0.014948724 
-0.9984925 0.05209676 0.017279783 
-0.9982484 0.05588399 0.019417288 
-0.9980713 0.058462054 0.020873144 
-0.9979343 0.06030132 0.022154631 
-0.9978795 0.06100227 0.022697533 
-0.99785745 0.06121077 0.023101859 
-0.9979103 0.06047912 0.022739965 
-0.9979709 0.05963522 0.022311283 
-0.99808246 0.05817703 0.021135902 
-0.99816823 0.057095278 0.020007292 
-0.99827546 0.055811886 0.018196909 
-0.9983247 0.055433325 0.016576774 
-0.998368 0.05526895 0.014368599 
-0.9983258 0.056472734 0.012501321 
-0.99825317 0.058202937 0.010146221 
-0.99806744 0.061587326 0.008272942 
-0.9978273 0.06560846 0.0060063032 
-0.9974446 0.071310595 0.004348514 
-0.9969891 0.07750497 0.0023883013 
-0.9963693 0.08512824 0.0011584793 
-0.9956788 0.092863545 -0.00027747863 
-0.99482965 0.101553254 -0.0008580464 
-0.99394953 0.10982632 -0.0015398398 
-0.9929564 0.11847387 -0.0012436949 
-0.9920095 0.126159 -0.000950102 
-0.9910254 0.13367319 0.00041551705 
-0.99017954 0.13978894 0.001838087 
-0.9893724 0.14533868 0.004357269 
-0.9887754 0.149249 0.0069161025 
-0.9882617 0.15241003 0.010489139 
-0.98798627 0.15390746 0.013982982 
-0.9877952 0.15468071 0.018287716 
-0.9878278 0.15394495 0.022297716 
-0.9879142 0.15266463 0.026813965 
-0.9881871 0.15013291 0.030762125 
-0.9884756 0.14731051 0.034863424 
-0.98891413 0.14350978 0.038128663 
-0.98934025 0.1396678 0.041214213 
-0.9898915 0.1350644 0.04326993 
-0.9904167 0.1306087 0.044900544 
-0.99105066 0.12551545 0.045436006 
-0.9916511 0.12067948 0.045434993 