# OOMMF: rectangular mesh v1.0
# Segment count: 1
# Begin: Segment
# Begin: Header
# Desc: Time :  1.0001224631051225e-09
# Title: m
# meshtype: rectangular
# meshunit: m
# xbase: 1.953125e-09
# ybase: 1.953125e-09
# zbase: 1.5e-09
# xstepsize: 3.90625e-09
# ystepsize: 3.90625e-09
# zstepsize: 3e-09
# xmin: 0
# ymin: 0
# zmin: 0
# xmax: 5e-07
# ymax: 1.25e-07
# zmax: 3e-09
# xnodes: 128
# ynodes: 32
# znodes: 1
# ValueRangeMinMag: 1e-08
# ValueRangeMaxMag: 1
# valueunit: 
# valuemultiplier: 1
# End: Header
# Begin: Data Text
-0.9507141 -0.30787036 -0.036857646 
-0.9625567 -0.2690489 -0.033124454 
-0.9746741 -0.22184879 -0.028170038 
-0.9844764 -0.17408463 -0.022377728 
-0.9917096 -0.127623 -0.014980016 
-0.99621373 -0.08665045 -0.0070499764 
-0.9987447 -0.050063062 0.0016283005 
-0.999729 -0.021401836 0.00915338 
-0.99987376 0.0026573746 0.015665527 
-0.99962443 0.01896502 0.01977725 
-0.99922943 0.032399293 0.022153685 
-0.9989568 0.039759427 0.02245769 
-0.99867696 0.046733644 0.021452747 
-0.99857444 0.04974058 0.019361885 
-0.99836427 0.054766838 0.016409403 
-0.9982374 0.057886384 0.013083135 
-0.99784034 0.06505344 0.009086682 
-0.9973816 0.07211131 0.005448843 
-0.99643284 0.084374286 0.001591157 
-0.9952696 0.0971481 -0.0007673421 
-0.99345016 0.11423291 -0.0027569009 
-0.9915032 0.13006201 -0.0022807324 
-0.9891582 0.14684471 -0.0016159365 
-0.98729587 0.15888494 0.0015377947 
-0.9857467 0.16819821 0.003585642 
-0.9853125 0.17059785 0.0074507445 
-0.985515 0.16937324 0.0085342 
-0.9866365 0.16257273 0.010876038 
-0.98795867 0.15444301 0.009218432 
-0.9895119 0.14417411 0.008936638 
-0.99081546 0.13514392 0.004556137 
-0.99201727 0.12606898 0.002878704 
-0.99298173 0.118258916 -0.0014205594 
-0.99396366 0.109707594 -0.00060852757 
-0.9949485 0.10038584 -0.00032435113 
-0.99603665 0.088691466 0.006696913 
-0.9971044 0.07484187 0.013467454 
-0.9979531 0.05859474 0.025617586 
-0.9985463 0.041262776 0.03467831 
-0.9986935 0.0239042 0.04516418 
-0.99877816 0.008641761 0.048655972 
-0.99872077 -0.003104961 0.050468676 
-0.9989804 -0.009526059 0.04412849 
-0.99926716 -0.010215528 0.036888022 
-0.999689 -0.0048362063 0.024463799 
-0.9998752 0.0052372864 0.014898786 
-0.99980956 0.018951464 0.0046381312 
-0.99942 0.034053132 0.00010189995 
-0.9987621 0.04966894 -0.0027060497 
-0.99791497 0.064540185 -0.00039900257 
-0.99685556 0.079171166 0.00327952 
-0.9955406 0.09389174 0.009121409 
-0.9938488 0.10967529 0.015352572 
-0.99166685 0.1270766 0.021172909 
-0.9889429 0.14571291 0.027561607 
-0.98573077 0.16518745 0.032370374 
-0.98224163 0.18359159 0.038671806 
-0.97879773 0.20034339 0.042632975 
-0.9757233 0.21356742 0.048504785 
-0.97330785 0.22381191 0.050793696 
-0.9715868 0.23025 0.054807086 
-0.9706538 0.2343361 0.054016657 
-0.9702168 0.23587514 0.05515683 
-0.9704387 0.23583533 0.05128708 
-0.9709184 0.23401587 0.050535273 
-0.9720823 0.2301432 0.045715556 
-0.97349197 0.22412425 0.04562495 
-0.9756732 0.21503 0.04270528 
-0.978051 0.20335276 0.04542858 
-0.9809663 0.18867701 0.04589012 
-0.98368937 0.17233373 0.051538132 
-0.9863627 0.15525866 0.05462003 
-0.98833704 0.13935052 0.06141059 
-0.98980296 0.1266474 0.0651959 
-0.9904074 0.11839749 0.0712402 
-0.9904107 0.11630723 0.0745607 
-0.9896703 0.11941287 0.079329394 
-0.9883458 0.12807561 0.08227402 
-0.98654914 0.13896482 0.0860776 
-0.98437643 0.15204836 0.08879369 
-0.9823569 0.16310345 0.0914985 
-0.98037 0.17357057 0.09352967 
-0.97919697 0.17943099 0.09475039 
-0.9781799 0.18423384 0.0960304 
-0.97823614 0.1837806 0.09632594 
-0.97821337 0.18304968 0.09793547 
-0.9792595 0.17696849 0.09865507 
-0.97995627 0.1712795 0.10173001 
-0.9816611 0.16015622 0.10339931 
-0.98282135 0.14989793 0.10766908 
-0.98486805 0.13454582 0.10923462 
-0.9862093 0.12075938 0.11317432 
-0.98827523 0.102813676 0.1128776 
-0.9895312 0.08735849 0.114875175 
-0.99138415 0.068903446 0.111399174 
-0.9923915 0.053885538 0.11070418 
-0.9938911 0.03704393 0.103961766 
-0.99455297 0.024711937 0.10126034 
-0.9956294 0.011846088 0.09263812 
-0.99595773 0.004726163 0.08969895 
-0.9967044 -0.0016918594 0.08110094 
-0.99684477 -0.001395059 0.07936268 
-0.9974141 0.00026823557 0.071866654 
-0.9973973 0.008585311 0.07158867 
-0.99770856 0.017608678 0.06532569 
-0.9973177 0.031354565 0.06613754 
-0.99719 0.043390702 0.061068512 
-0.996418 0.056689385 0.06274873 
-0.9961086 0.065464154 0.059008796 
-0.9954519 0.072800815 0.06144444 
-0.9954615 0.07480251 0.05882848 
-0.99528384 0.07520601 0.061270364 
-0.9956865 0.071966246 0.058559105 
-0.9958691 0.06874593 0.059317715 
-0.99641967 0.06447928 0.054682523 
-0.99671084 0.062022157 0.05215984 
-0.9971508 0.060845356 0.044587083 
-0.99725425 0.06318186 0.03862541 
-0.99719274 0.06912653 0.02877593 
-0.9965244 0.08063019 0.020925177 
-0.99511796 0.09808719 0.010908105 
-0.992446 0.122621566 0.003834295 
-0.9880674 0.15398031 -0.0035964344 
-0.9814532 0.19155818 -0.0074256 
-0.9722149 0.23384598 -0.0106904125 
-0.960377 0.27847642 -0.011258472 
-0.94649446 0.32250005 -0.011914615 
-0.93300897 0.35965025 -0.012077023 
-0.9509117 -0.30688694 -0.039839912 
-0.96200204 -0.27076095 -0.0352203 
-0.9738211 -0.2253119 -0.030115899 
-0.98416114 -0.17574267 -0.023265412 
-0.9913039 -0.13057423 -0.016333474 
-0.9962293 -0.08645368 -0.0072745252 
-0.9986387 -0.05215821 0.0005621031 
-0.99976367 -0.019745443 0.009097047 
-0.9998912 0.0010268856 0.014714674 
-0.9995755 0.021644706 0.019499473 
-0.9992893 0.031171542 0.021195645 
-0.99881804 0.043482598 0.021717137 
-0.99871916 0.046288565 0.02042899 
-0.9983301 0.054831788 0.018174501 
-0.9983274 0.05569239 0.015511417 
-0.9978369 0.06467102 0.011796712 
-0.9976563 0.067856394 0.008798708 
-0.99672973 0.08067765 0.004557583 
-0.9960104 0.08920404 0.0024215053 
-0.99423665 0.107203424 -0.0009587472 
-0.9926871 0.120714374 -0.00056522153 
-0.9900162 0.14094158 -0.0018300897 
-0.9880408 0.15418084 0.0018755174 
-0.9854866 0.16973709 0.0023040506 
-0.984451 0.17547028 0.008141551 
-0.9835333 0.18054284 0.008149652 
-0.98434025 0.17573409 0.013844077 
-0.9852479 0.17076479 0.01121659 
-0.9871265 0.15924217 0.014937089 
-0.9886403 0.15004638 0.008740113 
-0.99035287 0.13818495 0.010299636 
-0.99155223 0.12969342 0.0019612818 
-0.992776 0.11992174 0.003819271 
-0.9937309 0.11176776 -0.0026115272 
-0.9948461 0.10132805 0.0037125412 
-0.99593645 0.09000311 0.0031517823 
-0.99701625 0.075559385 0.015788628 
-0.9980088 0.059672672 0.020435693 
-0.9984907 0.04194926 0.03544624 
-0.99893016 0.024954878 0.038931813 
-0.99876845 0.009394673 0.048716858 
-0.99901974 -0.0018899993 0.044225592 
-0.998974 -0.008460891 0.04448935 
-0.99946374 -0.008451911 0.031632826 
-0.9996646 -0.0030304245 0.02571941 
-0.9999042 0.008078832 0.011233813 
-0.999735 0.022029245 0.0066774627 
-0.9992579 0.03847117 -0.0018857868 
-0.9985113 0.054540586 -0.000614533 
-0.9974903 0.07079462 -0.0010559529 
-0.9962739 0.08612996 0.0044656163 
-0.99475265 0.10189153 0.009224076 
-0.9928279 0.118617885 0.014915725 
-0.9904066 0.13650122 0.02149906 
-0.9873891 0.15628095 0.02527906 
-0.9838953 0.17574367 0.032620866 
-0.9800912 0.19548394 0.03474564 
-0.976353 0.21189973 0.042816393 
-0.97302896 0.2265703 0.043364987 
-0.9703378 0.23627004 0.05119525 
-0.9685516 0.24393953 0.049002208 
-0.96734095 0.2474286 0.055050407 
-0.96711165 0.2495367 0.04925839 
-0.9670039 0.24914116 0.053218048 
-0.9679611 0.24704596 0.04493957 
-0.9687489 0.24327762 0.048388254 
-0.97081876 0.23639546 0.04034908 
-0.9726644 0.22771858 0.04547587 
-0.97577983 0.21504314 0.04012718 
-0.9784928 0.20064762 0.047877375 
-0.98194814 0.18351215 0.045838457 
-0.98454964 0.16618636 0.055172443 
-0.9871535 0.14989457 0.055312492 
-0.9885831 0.1363051 0.06422162 
-0.9895984 0.1282394 0.06518826 
-0.9895423 0.12472564 0.07245272 
-0.98891944 0.12873554 0.07392826 
-0.98757064 0.13553187 0.07959465 
-0.9855647 0.14822108 0.08180798 
-0.98352945 0.15895991 0.086031646 
-0.9809445 0.17288142 0.088655114 
-0.97939026 0.18030913 0.09101174 
-0.9772989 0.19013412 0.09346544 
-0.97710836 0.1909212 0.093852565 
-0.97596914 0.19539008 0.0964719 
-0.97717494 0.18959482 0.09582708 
-0.97686946 0.18915614 0.09972887 
-0.9791069 0.17759867 0.09903715 
-0.97943187 0.17249203 0.104688644 
-0.9823131 0.1559119 0.10369346 
-0.98304355 0.1464925 0.11029576 
-0.9861493 0.12615454 0.10767814 
-0.9869658 0.113701 0.11388883 
-0.98989713 0.09159704 0.108228736 
-0.9905163 0.07818249 0.11298151 
-0.99301857 0.0565854 0.10349926 
-0.9932954 0.04460753 0.106650226 
-0.995247 0.025918271 0.0938692 
-0.9951632 0.018014265 0.0965697 
-0.9965997 0.0048089162 0.08225501 
-0.99627894 0.003548796 0.0861138 
-0.9974018 -0.0019365185 0.07201357 
-0.99696547 0.00500189 0.0776829 
-0.99788016 0.007961042 0.064588465 
-0.9971897 0.022146273 0.07156848 
-0.9977332 0.031083837 0.059685 
-0.9965892 0.047847256 0.06723459 
-0.996761 0.056903273 0.056827392 
-0.99547684 0.06969775 0.06455919 
-0.9957412 0.07333533 0.055869848 
-0.9948954 0.07852386 0.063379586 
-0.995549 0.07585401 0.055929907 
-0.9952493 0.074994355 0.062084578 
-0.9960958 0.06949173 0.054441735 
-0.99608946 0.066979855 0.05761412 
-0.9968332 0.0631375 0.048344128 
-0.9968486 0.06343351 0.047633838 
-0.9972 0.06531502 0.03641593 
-0.99681675 0.072848745 0.032392737 
-0.99618655 0.08487216 0.020220494 
-0.9944439 0.10422813 0.014760698 
-0.9914798 0.13020685 0.0037239904 
-0.9865316 0.16356924 -0.0005921362 
-0.97912854 0.20308056 -0.008090791 
-0.9689897 0.24691334 -0.009630182 
-0.9560713 0.29284474 -0.013024968 
-0.9415657 0.33657384 -0.013118657 
-0.92841786 0.3712523 -0.014559277 
-0.95323503 -0.29871413 -0.045965757 
-0.9631152 -0.26598465 -0.04075621 
-0.97481954 -0.22042345 -0.033769425 
-0.9842468 -0.17471187 -0.027093846 
-0.9918329 -0.12629123 -0.01782981 
-0.99612415 -0.08740597 -0.009835668 
-0.9988529 -0.04788087 0.00032728922 
-0.99972403 -0.022316055 0.007337492 
-0.9998763 0.0053954483 0.014772415 
-0.99967223 0.018086798 0.018115506 
-0.9991275 0.03625988 0.02071831 
-0.99898773 0.04013547 0.02031052 
-0.9984099 0.053078566 0.018979141 
-0.9984523 0.053050514 0.016690528 
-0.9977986 0.064962074 0.013331275 
-0.99779475 0.06548547 0.01083172 
-0.99679 0.079778515 0.0067065163 
-0.99641794 0.084410846 0.005106185 
-0.99466234 0.103175946 0.001240444 
-0.99356544 0.113243654 0.0018995331 
-0.9907812 0.13547078 -0.0005233227 
-0.98898876 0.14794576 0.0036274837 
-0.98573595 0.16827391 0.0028784946 
-0.98428476 0.17629187 0.010230476 
-0.98217094 0.18774863 0.009523448 
-0.9824517 0.1856357 0.018110937 
-0.9825632 0.18532544 0.014961894 
-0.9845384 0.1737159 0.022513838 
-0.9861085 0.16540232 0.015235231 
-0.98839915 0.15048641 0.020517383 
-0.99001205 0.14067304 0.009335494 
-0.99169725 0.12790841 0.013266707 
-0.99283206 0.1195127 0.0011031524 
-0.99403614 0.1088185 0.0071091256 
-0.99502313 0.099634126 -0.0014003821 
-0.99613357 0.087250374 0.010260556 
-0.997211 0.074215494 0.007890562 
-0.998003 0.05813582 0.024701674 
-0.99880105 0.041920822 0.025279555 
-0.9988335 0.025020866 0.041299567 
-0.99922913 0.010882757 0.037718885 
-0.9989294 -0.00034012197 0.046260223 
-0.99939466 -0.005653368 0.03432743 
-0.99938667 -0.005710267 0.03454976 
-0.9998436 0.00096159126 0.017657848 
-0.99981135 0.011958674 0.015304707 
-0.9996227 0.027431093 0.0013698513 
-0.999029 0.043979503 0.0026231396 
-0.9980806 0.061848655 -0.0031296178 
-0.9968944 0.07870823 0.0025503063 
-0.9954114 0.095594116 0.004229129 
-0.9935973 0.11248197 0.010583586 
-0.991404 0.12983917 0.016117802 
-0.98861235 0.14916858 0.019854072 
-0.9853295 0.1684903 0.027144868 
-0.98145396 0.18964583 0.027975306 
-0.97738624 0.20821825 0.036893528 
-0.9733165 0.22667299 0.035697386 
-0.9697104 0.2399007 0.045926094 
-0.96685785 0.2517699 0.042399522 
-0.96471363 0.2580137 0.05250216 
-0.9637132 0.26303056 0.045516822 
-0.96296084 0.26413092 0.054233175 
-0.96356124 0.26387686 0.043801833 
-0.96378106 0.26168784 0.051434103 
-0.96567625 0.25672776 0.039498847 
-0.9668765 0.25076383 0.047615808 
-0.96997774 0.24038137 0.036877844 
-0.97228885 0.22905682 0.046767663 
-0.9762049 0.21331878 0.03897382 
-0.9790902 0.19707441 0.05043825 
-0.98274904 0.17920943 0.045696165 
-0.9850227 0.16265605 0.057210907 
-0.98726386 0.14939155 0.054699734 
-0.98809046 0.1395947 0.06473392 
-0.9884663 0.13727167 0.06395865 
-0.9877963 0.13807856 0.07206044 
-0.9863988 0.14720057 0.07313831 
-0.9846494 0.15539216 0.07949045 
-0.9819744 0.17018089 0.08224689 
-0.98014617 0.17837025 0.086588 
-0.97722685 0.19206722 0.09020967 
-0.9765485 0.19465238 0.09199712 
-0.97426236 0.20394818 0.09600948 
-0.97526497 0.19937351 0.09543741 
-0.9738207 0.20396496 0.10035643 
-0.97629297 0.19286285 0.098263994 
-0.9755861 0.19301297 0.10477362 
-0.9790989 0.17626047 0.10147624 
-0.979006 0.17192551 0.10949354 
-0.9830893 0.15045978 0.10438858 
-0.9833589 0.14203945 0.11326984 
-0.9874749 0.11740904 0.105395585 
-0.98771805 0.10643342 0.11438894 
-0.991407 0.08087919 0.102812715 
-0.99133223 0.069804356 0.11130021 
-0.9943559 0.045909684 0.095647514 
-0.9938838 0.037595518 0.10383398 
-0.9962103 0.018043766 0.08508496 
-0.99543154 0.015311778 0.094241925 
-0.9972289 0.0026042357 0.074347705 
-0.9963026 0.00760711 0.08557564 
-0.99780947 0.0034028108 0.06606591 
-0.9967268 0.016540468 0.0791336 
-0.99795485 0.02023185 0.06063564 
-0.99648243 0.038582545 0.07439197 
-0.9973068 0.045850277 0.05724389 
-0.9954958 0.063166596 0.0706974 
-0.99616927 0.06769349 0.05535552 
-0.99461097 0.07825168 0.06801269 
-0.9955623 0.07660021 0.05466302 
-0.9946558 0.07945609 0.06592811 
-0.9958449 0.07339835 0.053902797 
-0.9954311 0.072079174 0.06262003 
-0.996525 0.06610187 0.050679915 
-0.9963021 0.06540393 0.05571496 
-0.9970326 0.06386466 0.042978995 
-0.9966846 0.068415806 0.04403412 
-0.9966748 0.075605564 0.030380823 
-0.99551725 0.09028979 0.02816155 
-0.9937538 0.110667884 0.014347765 
-0.99020356 0.13922772 0.010602989 
-0.9846451 0.17456198 -0.0014114999 
-0.9763853 0.21599308 -0.0043361946 
-0.96507174 0.2616925 -0.012394339 
-0.95126706 0.3080674 -0.0136151435 
-0.9359254 0.35175017 -0.01775983 
-0.92282194 0.38476232 -0.018907094 
-0.95730716 -0.28380874 -0.054914627 
-0.9665756 -0.2518714 -0.047878142 
-0.97655475 -0.21142691 -0.040488835 
-0.9860093 -0.16381848 -0.03080565 
-0.9921657 -0.12290642 -0.022388864 
-0.9968223 -0.07888723 -0.011051826 
-0.99878925 -0.049115058 -0.0027619433 
-0.9998563 -0.015335568 0.0072213234 
-0.99992144 0.0010001209 0.012491176 
-0.99953216 0.024909684 0.017747734 
-0.9993517 0.030805007 0.018634139 
-0.9986471 0.048509542 0.018727671 
-0.9986717 0.048727468 0.016743548 
-0.9978389 0.06425257 0.013748043 
-0.99793154 0.06327361 0.011356893 
-0.9967811 0.079833455 0.0073504695 
-0.99666697 0.081342615 0.0061891787 
-0.99486685 0.10116592 0.0023076567 
-0.99420434 0.10745086 0.0034773217 
-0.9914083 0.13080198 0.0005721234 
-0.9900069 0.1409217 0.0052321632 
-0.9863893 0.16438328 0.0037742716 
-0.9848309 0.17307831 0.0123298755 
-0.9817013 0.1900918 0.011294349 
-0.98141026 0.1906077 0.022416662 
-0.98043406 0.1958976 0.019314138 
-0.9821562 0.18556407 0.030579543 
-0.9834403 0.17976165 0.023040038 
-0.98615074 0.16265175 0.032420274 
-0.9882083 0.15185116 0.019637227 
-0.99048036 0.13503306 0.026731381 
-0.9920953 0.12505847 0.010358579 
-0.9935565 0.11201709 0.017249651 
-0.99462056 0.10357465 0.0014530515 
-0.99567336 0.092147134 0.011974433 
-0.99661946 0.08214891 0.0011018353 
-0.99748707 0.06865371 0.017497627 
-0.9984016 0.05523118 0.011986312 
-0.99872625 0.039428785 0.03148489 
-0.9993391 0.025096674 0.026294246 
-0.9990422 0.011478308 0.042224195 
-0.99951226 0.0022818397 0.031142402 
-0.99923253 -0.0028281321 0.03906834 
-0.9997698 -0.0014720237 0.021401618 
-0.99970764 0.005053439 0.023641689 
-0.9998354 0.017285986 0.0054997797 
-0.99943304 0.032638878 0.0082534095 
-0.9987076 0.05071857 -0.0032533933 
-0.99760604 0.069077194 0.003244213 
-0.9961592 0.0875593 0.0004729365 
-0.9943513 0.10581212 0.008318565 
-0.99227333 0.12352991 0.01157417 
-0.98960847 0.14282916 0.016579567 
-0.9866009 0.16154279 0.022862304 
-0.9828362 0.18297628 0.023507359 
-0.9787982 0.20230174 0.032061815 
-0.97432995 0.22319141 0.029439269 
-0.9701003 0.23931278 0.040431187 
-0.9662441 0.25518334 0.035408024 
-0.96311444 0.26476932 0.048039325 
-0.9610701 0.27338877 0.040035117 
-0.9595258 0.27663514 0.052754242 
-0.95950514 0.2786731 0.04112269 
-0.95917135 0.27779695 0.053095743 
-0.9608033 0.2745151 0.038708713 
-0.9613912 0.2705227 0.050440438 
-0.96437657 0.26213503 0.035538327 
-0.9660235 0.253954 0.048019674 
-0.9700818 0.24026713 0.03482664 
-0.97272485 0.22687367 0.048316836 
-0.9770983 0.20936161 0.03803317 
-0.97988087 0.19277123 0.0516975 
-0.983327 0.1763072 0.04454106 
-0.9850837 0.16233017 0.057086475 
-0.98668265 0.1537916 0.052967004 
-0.986896 0.14828913 0.0636137 
-0.9864644 0.15154427 0.0626277 
-0.98532563 0.15506281 0.07133672 
-0.98312384 0.16757077 0.07339882 
-0.98136693 0.17466852 0.080060475 
-0.978147 0.19003382 0.08435444 
-0.97701406 0.19401683 0.08832302 
-0.97380555 0.20713131 0.09380425 
-0.97431135 0.20437096 0.094603516 
-0.97172946 0.21342485 0.10095345 
-0.97406477 0.20354676 0.09882513 
-0.9722196 0.20851095 0.10635845 
-0.9760315 0.19242401 0.10166321 
-0.9748979 0.1932577 0.11056824 
-0.9796938 0.17188393 0.10322723 
-0.97917044 0.16834031 0.11351949 
-0.98436123 0.14270894 0.10328122 
-0.9841054 0.13531724 0.11500253 
-0.9890481 0.10719275 0.10145562 
-0.9886108 0.097941644 0.114262685 
-0.9928568 0.06992174 0.09667598 
-0.9920038 0.061837714 0.11002091 
-0.9954141 0.036822453 0.08828815 
-0.9941813 0.033046402 0.102526106 
-0.99685395 0.013711691 0.07806494 
-0.99539834 0.016782485 0.0943419 
-0.9975908 0.005252198 0.069173805 
-0.99599886 0.016476601 0.087833844 
-0.99790764 0.013536797 0.06322221 
-0.99603355 0.031718247 0.083132654 
-0.99760616 0.035077266 0.059593685 
-0.99532884 0.055318337 0.07912226 
-0.9966037 0.05929911 0.057135873 
-0.99434304 0.07497273 0.07523889 
-0.9956975 0.07429234 0.055381622 
-0.99406785 0.08186013 0.071609594 
-0.9956503 0.0759157 0.054012064 
-0.9947153 0.07708323 0.06782086 
-0.99622816 0.06954447 0.051894616 
-0.99566567 0.06890123 0.06246938 
-0.99679947 0.064387836 0.047381196 
-0.99629986 0.066802196 0.054072637 
-0.9968097 0.06959109 0.039082114 
-0.9959214 0.08006493 0.041595683 
-0.9951587 0.09474659 0.02612087 
-0.992699 0.11803754 0.024814116 
-0.9889454 0.14798546 0.00933507 
-0.9826286 0.18548751 0.0059381984 
-0.97343075 0.22886544 -0.0072964514 
-0.9612667 0.27542266 -0.010419365 
-0.94621646 0.3229608 -0.019248538 
-0.93033904 0.36606395 -0.021593232 
-0.91666245 0.3988203 -0.02592628 
-0.9632579 -0.26052716 -0.065266676 
-0.9708741 -0.23263016 -0.057329793 
-0.9802664 -0.19203427 -0.04690955 
-0.98751086 -0.1530303 -0.037468657 
-0.99378103 -0.10845892 -0.02521454 
-0.99697 -0.07619337 -0.015662642 
-0.9992548 -0.03843158 -0.0035748428 
-0.99981964 -0.018617379 0.0037425205 
-0.999877 0.010193493 0.011914568 
-0.99971646 0.018769406 0.014652078 
-0.99901134 0.04113424 0.016857704 
-0.99897057 0.04262662 0.015515486 
-0.9979831 0.06210184 0.013152575 
-0.99809587 0.060765844 0.010591346 
-0.9967603 0.08016535 0.0065095257 
-0.99681884 0.07951818 0.005378273 
-0.9949042 0.1008134 0.0014603098 
-0.9946206 0.10353772 0.0031029978 
-0.99182373 0.1276151 8.050182e-05 
-0.990916 0.13437602 0.0053367163 
-0.98718125 0.15956375 0.003526106 
-0.9858323 0.16722539 0.013049077 
-0.9820226 0.18838699 0.011913319 
-0.98133427 0.19065602 0.025163757 
-0.97921133 0.20158328 0.022567326 
-0.980404 0.19341664 0.03738796 
-0.98098713 0.19166794 0.030456427 
-0.9837638 0.17393205 0.044230293 
-0.9860659 0.16341841 0.031117557 
-0.98886216 0.14269145 0.042316496 
-0.9911611 0.13057442 0.023447793 
-0.9930118 0.11338023 0.032749243 
-0.9945268 0.10387079 0.0112809045 
-0.9955873 0.09128957 0.021729063 
-0.99653 0.08319634 0.0024723862 
-0.9972673 0.07174778 0.017608047 
-0.9980745 0.06191089 0.0037842558 
-0.9985213 0.04873654 0.024077594 
-0.99923015 0.036640093 0.014021814 
-0.9991182 0.023171075 0.03501075 
-0.99965644 0.012538001 0.023016261 
-0.9992443 0.0040286304 0.038659643 
-0.99978274 0.0006673338 0.02083057 
-0.9995603 0.0022343895 0.029565906 
-0.99991703 0.009557276 0.00863206 
-0.9996535 0.0218167 0.014723762 
-0.999281 0.03784625 -0.002234646 
-0.9983837 0.056522615 0.005923832 
-0.99711686 0.07584569 -0.0023047614 
-0.9953404 0.096116014 0.0076884925 
-0.99333805 0.114995785 0.007441282 
-0.9906595 0.13552354 0.01507218 
-0.9878603 0.15411243 0.019526869 
-0.9841731 0.17587803 0.021683026 
-0.98036325 0.19504964 0.029042332 
-0.97577417 0.21722412 0.026044076 
-0.9713106 0.23501311 0.0363922 
-0.9667424 0.25399122 0.029958423 
-0.9627892 0.26676488 0.04328249 
-0.959642 0.27915746 0.034033284 
-0.9571789 0.2852805 0.049229674 
-0.95624954 0.29024032 0.03670615 
-0.95527476 0.29104233 0.05238604 
-0.9564544 0.28957242 0.03664261 
-0.9565103 0.28698713 0.05221363 
-0.9593367 0.2801317 0.034630567 
-0.96030116 0.2743944 0.050293285 
-0.964357 0.2625523 0.032892108 
-0.96636206 0.25251693 0.04878014 
-0.9710882 0.23639226 0.033263706 
-0.9738032 0.22206648 0.048925757 
-0.9781733 0.20456621 0.036464117 
-0.98057026 0.18939912 0.051087767 
-0.98342454 0.17626978 0.04248682 
-0.9845661 0.16601714 0.055387817 
-0.98532945 0.16281301 0.051163536 
-0.9850268 0.16082773 0.06210236 
-0.9837368 0.1684547 0.06232852 
-0.98244363 0.17243378 0.071210705 
-0.9795518 0.18661523 0.07518635 
-0.978277 0.19061823 0.08147811 
-0.9746535 0.20572244 0.087913595 
-0.9746131 0.20465495 0.09080554 
-0.9711275 0.21719551 0.098678745 
-0.97300726 0.20905079 0.09774725 
-0.9700915 0.21802986 0.10670209 
-0.9738274 0.20316397 0.101903394 
-0.9715965 0.20852946 0.11187368 
-0.9767328 0.18800707 0.10318014 
-0.9752126 0.18942058 0.114369534 
-0.98115635 0.16410084 0.10199583 
-0.98017824 0.16120268 0.115170434 
-0.9862171 0.13216557 0.09953896 
-0.9853253 0.12588464 0.11527023 
-0.990802 0.09525868 0.09611016 
-0.9895641 0.088303834 0.11386514 
-0.99415547 0.05908305 0.090354346 
-0.9924736 0.054913167 0.10945572 
-0.9961878 0.03002842 0.08190171 
-0.9941965 0.03158164 0.10283928 
-0.9972332 0.0134001365 0.073117435 
-0.9950622 0.0225364 0.09666095 
-0.99769455 0.012648864 0.06667442 
-0.99530315 0.029484991 0.09220693 
-0.9976428 0.027442941 0.06289348 
-0.9948761 0.048876707 0.08850146 
-0.9968918 0.050645784 0.06034507 
-0.9939534 0.070439905 0.08423117 
-0.99585456 0.07014447 0.05790753 
-0.99340904 0.08281766 0.079244874 
-0.9954497 0.077492096 0.05544904 
-0.9938525 0.08232618 0.07402384 
-0.99585474 0.07395774 0.05294844 
-0.9948627 0.07453203 0.06850741 
-0.9964703 0.06756339 0.049821798 
-0.99570894 0.06877139 0.061921004 
-0.99670273 0.06757735 0.044908892 
-0.9958241 0.07444242 0.05284494 
-0.99584955 0.08350357 0.036203273 
-0.99408644 0.10130053 0.03911728 
-0.9919276 0.124939494 0.021672335 
-0.9873856 0.1570942 0.019774748 
-0.9805877 0.1960659 0.0024026555 
-0.9706716 0.2404004 -0.0020146423 
-0.95733887 0.28850642 -0.016313396 
-0.94170105 0.33581465 -0.02067532 
-0.92467874 0.37958688 -0.029713213 
-0.9105982 0.41195586 -0.033212632 
-0.9700857 -0.23035423 -0.076619 
-0.9767998 -0.20361741 -0.06634834 
-0.98367494 -0.17120846 -0.055417523 
-0.9905022 -0.13086255 -0.04219454 
-0.9945977 -0.09901076 -0.031183276 
-0.9980155 -0.06048775 -0.017496988 
-0.9992307 -0.038358152 -0.008156118 
-0.99997556 -0.0064239977 0.0027429822 
-0.99995774 0.004923539 0.00776398 
-0.99943304 0.031209026 0.012633993 
-0.99931496 0.03480595 0.012571852 
-0.9982392 0.058207445 0.011413634 
-0.9982939 0.057725344 0.008781073 
-0.99675333 0.08038533 0.0045814547 
-0.9968856 0.07880268 0.0030342094 
-0.9947794 0.10204131 -0.0012423135 
-0.9947952 0.101892255 0.0005350346 
-0.991947 0.12662612 -0.0026341311 
-0.9915605 0.12960468 0.0032017638 
-0.98784184 0.15545745 0.0012000684 
-0.9869551 0.16058227 0.011528096 
-0.98282206 0.18426785 0.010297836 
-0.98206633 0.18684812 0.025168076 
-0.97899055 0.20258489 0.023169884 
-0.97961044 0.19664836 0.04114396 
-0.97918355 0.19985496 0.035459865 
-0.9816254 0.1830944 0.053739887 
-0.983761 0.17461096 0.041534595 
-0.9868151 0.15126601 0.05757206 
-0.98976636 0.13756233 0.037933826 
-0.9919972 0.11547444 0.051060148 
-0.9942892 0.103515565 0.025950244 
-0.9954384 0.087501146 0.03802458 
-0.9967753 0.079363495 0.011838038 
-0.99732584 0.06815352 0.02638266 
-0.99811524 0.061252207 0.0037489128 
-0.9984341 0.050832484 0.02335314 
-0.9990849 0.042374402 0.0057985536 
-0.99909467 0.031035248 0.029097192 
-0.9996772 0.021601487 0.013368345 
-0.99931014 0.012019386 0.03513828 
-0.9998503 0.005863928 0.01627951 
-0.99947554 0.0032604837 0.03221714 
-0.99994123 0.0053385473 0.009434103 
-0.999701 0.013193537 0.020586105 
-0.9996869 0.025000788 -0.0010061797 
-0.9990666 0.042057242 0.009855455 
-0.99816924 0.060326405 -0.0043488885 
-0.9965937 0.082060724 0.008177994 
-0.9947809 0.10198465 0.0031837584 
-0.99207413 0.1248287 0.014377477 
-0.9894257 0.144143 0.016106054 
-0.9856625 0.16733329 0.021656003 
-0.98209876 0.18637316 0.027331596 
-0.97743464 0.20964935 0.025856642 
-0.9730372 0.22801597 0.034744266 
-0.96806175 0.24916516 0.027804825 
-0.96361685 0.26424053 0.04024284 
-0.9595527 0.27996087 0.029672867 
-0.95620227 0.28916052 0.045425076 
-0.95421505 0.29742524 0.031809278 
-0.95245796 0.30058035 0.049750153 
-0.95291924 0.3014141 0.033081084 
-0.95243555 0.3002755 0.051971935 
-0.95498365 0.2948326 0.03286218 
-0.9553753 0.29078683 0.05197099 
-0.95940346 0.28023493 0.031831734 
-0.96066296 0.27304924 0.05070094 
-0.9655566 0.25832602 0.03111289 
-0.96770084 0.24726668 0.04913556 
-0.9726479 0.23011886 0.0316432 
-0.97511226 0.21640605 0.0482132 
-0.9790222 0.20081817 0.034458213 
-0.980829 0.18855219 0.0492189 
-0.9828408 0.17993522 0.040585972 
-0.9834034 0.17339994 0.053386204 
-0.9832773 0.174985 0.050458033 
-0.9827116 0.1747375 0.06119329 
-0.9806626 0.18510999 0.063523404 
-0.9796597 0.18737732 0.07180918 
-0.9762665 0.20199227 0.078120686 
-0.97592133 0.20165154 0.083151385 
-0.9720179 0.21613194 0.09202254 
-0.973327 0.20974354 0.09296373 
-0.9696092 0.22172745 0.10341523 
-0.97294056 0.20844235 0.09969066 
-0.96974987 0.21733657 0.11113013 
-0.9748398 0.19801323 0.10236195 
-0.972307 0.20364726 0.1146593 
-0.97858584 0.1793502 0.101011366 
-0.9767084 0.18109682 0.11508521 
-0.98347247 0.15253937 0.09753765 
-0.98195755 0.15019532 0.11489413 
-0.98845875 0.118690856 0.09413661 
-0.98679495 0.11396441 0.11509903 
-0.99250835 0.08213011 0.09045251 
-0.9903924 0.07840912 0.113907546 
-0.99518937 0.049370114 0.08462068 
-0.9926762 0.050039284 0.10995451 
-0.9966778 0.026418738 0.07704024 
-0.99391675 0.03378561 0.10482406 
-0.99736166 0.017575482 0.07043221 
-0.9943811 0.032594293 0.10071601 
-0.9974896 0.024636403 0.06638849 
-0.9941729 0.0458622 0.09755435 
-0.99697864 0.044072624 0.06396099 
-0.99337405 0.06657511 0.09367915 
-0.99594337 0.06573441 0.06144757 
-0.99262387 0.08320886 0.088171445 
-0.9951956 0.07870106 0.058238387 
-0.99277174 0.08802609 0.08158129 
-0.99531704 0.07965254 0.05476596 
-0.993764 0.082633704 0.07486414 
-0.9959314 0.073958926 0.05148607 
-0.99483365 0.07504843 0.068364196 
-0.99635273 0.07044459 0.048153087 
-0.9953303 0.0745736 0.061288543 
-0.9959985 0.07835099 0.042988427 
-0.9945561 0.09086533 0.05100631 
-0.993655 0.107683785 0.03246394 
-0.99047434 0.13341354 0.034080096 
-0.9860038 0.16611086 0.014272677 
-0.9785333 0.20582531 0.010408467 
-0.96783924 0.25142395 -0.008554235 
-0.9541033 0.2991189 -0.014652581 
-0.9372235 0.3475105 -0.029128753 
-0.919888 0.39063084 -0.03483532 
-0.9049152 0.42347005 -0.042444523 
-0.9775428 -0.19181398 -0.08727753 
-0.98231626 -0.17109035 -0.07604488 
-0.9882561 -0.13971356 -0.061885823 
-0.9925088 -0.11187044 -0.049105097 
-0.99648076 -0.07656802 -0.03410647 
-0.9982593 -0.054407816 -0.022761174 
-0.999708 -0.022170896 -0.0096003795 
-0.99995786 -0.008937254 -0.0020975026 
-0.9997923 0.01959079 0.005613125 
-0.9996464 0.025503669 0.0075139483 
-0.9986055 0.05214812 0.008218415 
-0.9985471 0.053547136 0.0060223476 
-0.99682355 0.07961614 0.0019825434 
-0.99690837 0.07857292 -0.00017634762 
-0.99452937 0.10433052 -0.005135562 
-0.994718 0.102576755 -0.003722664 
-0.9917107 0.12827775 -0.0073867836 
-0.9918044 0.12775934 -0.0011801994 
-0.9881165 0.15366824 -0.0034357028 
-0.9878513 0.15521543 0.00760996 
-0.9836683 0.17988536 0.0061501116 
-0.98321617 0.18109405 0.022152474 
-0.9795449 0.20018555 0.02043418 
-0.97981966 0.1956678 0.04083363 
-0.97833127 0.20380877 0.036466338 
-0.9801991 0.18903881 0.058940828 
-0.98169893 0.18414876 0.04854356 
-0.98462903 0.16008547 0.0698434 
-0.9879235 0.14628854 0.051055614 
-0.9903725 0.11992874 0.06913281 
-0.9935452 0.10519114 0.04245836 
-0.9947678 0.084193535 0.057865754 
-0.9968914 0.0740654 0.026866252 
-0.99725395 0.06070046 0.04242471 
-0.9984158 0.05495557 0.012073272 
-0.99845564 0.04602443 0.031113427 
-0.99913955 0.041168608 0.0050282883 
-0.9990508 0.032753937 0.02871756 
-0.9996278 0.026461773 0.0066300444 
-0.9993217 0.018016584 0.03211591 
-0.99988014 0.011644583 0.010198607 
-0.9994469 0.0066585504 0.032578405 
-0.9999582 0.0046497243 0.007866695 
-0.99965346 0.007911159 0.025107414 
-0.9998975 0.014310783 -0.00024367173 
-0.99950755 0.027846161 0.014463281 
-0.9990699 0.04274456 -0.005671222 
-0.9978881 0.06423624 0.009644157 
-0.9964755 0.08387481 -0.0012218897 
-0.9939421 0.109041736 0.01375085 
-0.9915234 0.12941481 0.011538083 
-0.98763096 0.15526797 0.021835448 
-0.9842726 0.174836 0.025292136 
-0.9793939 0.20006046 0.027627168 
-0.97518617 0.21863495 0.03479298 
-0.9699094 0.24169685 0.029295431 
-0.9653163 0.2580013 0.039996725 
-0.9606091 0.27640152 0.028849889 
-0.9566047 0.28812784 0.043469734 
-0.95363885 0.29959056 0.028605463 
-0.9510468 0.30546746 0.04689931 